%VERSION  VERSION_STAMP = V0001.000  DATE = 03/21/24  09:21:30                  
%FLAG TITLE                                                                     
%FORMAT(20a4)                                                                   
default_name                                                                    
%FLAG POINTERS                                                                  
%FORMAT(10I8)                                                                   
      31      12      14      18      31      26      64      49       0       0
     167       1      18      26      49      22      44      36      16       0
       0       0       0       0       0       0       0       0      31       0
       0
%FLAG ATOM_NAME                                                                 
%FORMAT(20a4)                                                                   
HO5'O5' C5' H5' H5''C4' H4' O4' C1' H1' N1  C6  H6  C5  C7  H71 H72 H73 C4  O4  
N3  H3  C2  O2  C3' H3' C2' H2' H2''O3' HO3'
%FLAG CHARGE                                                                    
%FORMAT(5E16.8)                                                                 
  8.05790106E+00 -1.15128491E+01 -1.25733870E-01  1.37396142E+00  1.37396142E+00
  2.96841267E+00  2.14294248E+00 -6.72585093E+00  1.23911640E+00  3.28730292E+00
 -4.35512970E-01 -4.02530607E+00  4.75055361E+00  4.55557500E-02 -4.13463987E+00
  1.40311710E+00  1.40311710E+00  1.40311710E+00  9.46466262E+00 -1.01370655E+01
 -7.90847820E+00  6.23202660E+00  1.03447997E+01 -1.07165346E+01  1.29924999E+00
  1.79489655E+00 -1.55618442E+00  1.30836114E+00  1.30836114E+00 -1.19337843E+01
  8.01052308E+00
%FLAG ATOMIC_NUMBER                                                             
%FORMAT(10I8)                                                                   
       1       8       6       1       1       6       1       8       6       1
       7       6       1       6       6       1       1       1       6       8
       7       1       6       8       6       1       6       1       1       8
       1
%FLAG MASS                                                                      
%FORMAT(5E16.8)                                                                 
  1.00800000E+00  1.60000000E+01  1.20100000E+01  1.00800000E+00  1.00800000E+00
  1.20100000E+01  1.00800000E+00  1.60000000E+01  1.20100000E+01  1.00800000E+00
  1.40100000E+01  1.20100000E+01  1.00800000E+00  1.20100000E+01  1.20100000E+01
  1.00800000E+00  1.00800000E+00  1.00800000E+00  1.20100000E+01  1.60000000E+01
  1.40100000E+01  1.00800000E+00  1.20100000E+01  1.60000000E+01  1.20010000E+01
  1.00800000E+00  1.20100000E+01  1.00800000E+00  1.00800000E+00  1.60000000E+01
  1.00800000E+00
%FLAG ATOM_TYPE_INDEX                                                           
%FORMAT(10I8)                                                                   
       1       2       3       4       4       3       4       5       3       6
       7       8       9       8       3      10      10      10       8      11
       7      12       8      11       3       4       3      10      10       2
       1
%FLAG NUMBER_EXCLUDED_ATOMS                                                     
%FORMAT(10I8)                                                                   
       5       7      10       5       4      12       6      11      14       7
      13      12       4       9       6       3       2       1       5       3
       3       2       2       1       6       5       4       2       1       1
       1
%FLAG NONBONDED_PARM_INDEX                                                      
%FORMAT(10I8)                                                                   
       1       2       4       7      11      16      22      29      37      46
      56      67       2       3       5       8      12      17      23      30
      38      47      57      68       4       5       6       9      13      18
      24      31      39      48      58      69       7       8       9      10
      14      19      25      32      40      49      59      70      11      12
      13      14      15      20      26      33      41      50      60      71
      16      17      18      19      20      21      27      34      42      51
      61      72      22      23      24      25      26      27      28      35
      43      52      62      73      29      30      31      32      33      34
      35      36      44      53      63      74      37      38      39      40
      41      42      43      44      45      54      64      75      46      47
      48      49      50      51      52      53      54      55      65      76
      56      57      58      59      60      61      62      63      64      65
      66      77      67      68      69      70      71      72      73      74
      75      76      77      78
%FLAG RESIDUE_LABEL                                                             
%FORMAT(20a4)                                                                   
DTN 
%FLAG RESIDUE_POINTER                                                           
%FORMAT(10I8)                                                                   
       1
%FLAG BOND_FORCE_CONSTANT                                                       
%FORMAT(5E16.8)                                                                 
  5.53000000E+02  3.40000000E+02  3.40000000E+02  3.10000000E+02  3.20000000E+02
  5.70000000E+02  4.34000000E+02  4.18000000E+02  3.17000000E+02  4.10000000E+02
  3.67000000E+02  5.49000000E+02  4.48000000E+02  4.24000000E+02  3.40000000E+02
  3.37000000E+02  3.10000000E+02  3.20000000E+02  3.40000000E+02  3.40000000E+02
  3.10000000E+02  3.20000000E+02
%FLAG BOND_EQUIL_VALUE                                                          
%FORMAT(5E16.8)                                                                 
  9.60000000E-01  1.09000000E+00  1.09000000E+00  1.52600000E+00  1.41000000E+00
  1.22900000E+00  1.01000000E+00  1.38800000E+00  1.51000000E+00  1.44400000E+00
  1.08000000E+00  1.35000000E+00  1.36500000E+00  1.38300000E+00  1.09000000E+00
  1.47500000E+00  1.52600000E+00  1.41000000E+00  1.09000000E+00  1.09000000E+00
  1.52600000E+00  1.41000000E+00
%FLAG ANGLE_FORCE_CONSTANT                                                      
%FORMAT(5E16.8)                                                                 
  3.50000000E+01  5.00000000E+01  5.00000000E+01  5.00000000E+01  5.00000000E+01
  5.50000000E+01  5.00000000E+01  8.00000000E+01  7.00000000E+01  7.00000000E+01
  5.00000000E+01  8.00000000E+01  7.00000000E+01  5.00000000E+01  7.00000000E+01
  7.00000000E+01  6.30000000E+01  5.00000000E+01  5.00000000E+01  7.00000000E+01
  7.00000000E+01  8.00000000E+01  5.00000000E+01  5.00000000E+01  7.00000000E+01
  7.00000000E+01  4.00000000E+01  5.00000000E+01  5.00000000E+01  5.00000000E+01
  5.00000000E+01  5.00000000E+01  5.00000000E+01  5.00000000E+01  6.00000000E+01
  4.00000000E+01  5.00000000E+01  3.50000000E+01  5.00000000E+01  5.00000000E+01
  4.00000000E+01  5.00000000E+01  5.00000000E+01  5.50000000E+01
%FLAG ANGLE_EQUIL_VALUE                                                         
%FORMAT(5E16.8)                                                                 
  1.91113635E+00  1.91113635E+00  1.91113635E+00  1.91113635E+00  1.91113635E+00
  1.89368305E+00  2.03854544E+00  2.10486798E+00  2.20609712E+00  2.08916001E+00
  1.91113635E+00  2.18689849E+00  1.99142153E+00  2.08916001E+00  2.12232128E+00
  2.08916001E+00  2.10661331E+00  1.91113635E+00  2.07868803E+00  2.11533996E+00
  2.01411082E+00  2.11010397E+00  1.91113635E+00  1.91113635E+00  2.11533996E+00
  2.05250808E+00  1.91113635E+00  1.91113635E+00  1.91113635E+00  1.91113635E+00
  1.91113635E+00  1.91113635E+00  1.91113635E+00  1.91113635E+00  1.91113635E+00
  1.91113635E+00  1.91113635E+00  1.91113635E+00  1.91113635E+00  1.91113635E+00
  1.91113635E+00  1.91113635E+00  1.91113635E+00  1.89368305E+00
%FLAG DIHEDRAL_FORCE_CONSTANT                                                   
%FORMAT(5E16.8)                                                                 
  1.55555556E-01  1.07993300E+00  3.19017000E-01  5.48360000E-02  1.66666667E-01
  0.00000000E+00  1.35000000E+00  0.00000000E+00  2.17500000E+00  1.85000000E+00
  6.65000000E+00  1.45000000E+00  1.15000000E+00  3.80000000E-01  3.00000000E-01
  1.00000000E-01  3.83300000E-01  1.20000000E+00  1.17500000E+00  1.44000000E-01
  9.90000000E-01  1.67000000E+00  1.70000000E-01  2.50000000E-01  3.83333333E-01
  6.50000000E-01  3.83000000E-01  1.20000000E+00  9.00000000E-01  1.60000000E-01
  1.17804000E+00  9.21020000E-02  9.62830000E-01  1.05000000E+01  1.00000000E+00
  1.10000000E+00
%FLAG DIHEDRAL_PERIODICITY                                                      
%FORMAT(5E16.8)                                                                 
  3.00000000E+00  1.00000000E+00  2.00000000E+00  3.00000000E+00  3.00000000E+00
  2.00000000E+00  2.00000000E+00  3.00000000E+00  2.00000000E+00  2.00000000E+00
  2.00000000E+00  2.00000000E+00  1.00000000E+00  3.00000000E+00  3.00000000E+00
  2.00000000E+00  3.00000000E+00  1.00000000E+00  2.00000000E+00  3.00000000E+00
  1.00000000E+00  2.00000000E+00  3.00000000E+00  1.00000000E+00  3.00000000E+00
  2.00000000E+00  3.00000000E+00  1.00000000E+00  3.00000000E+00  3.00000000E+00
  1.00000000E+00  2.00000000E+00  3.00000000E+00  2.00000000E+00  2.00000000E+00
  2.00000000E+00
%FLAG DIHEDRAL_PHASE                                                            
%FORMAT(5E16.8)                                                                 
  0.00000000E+00  5.19698240E+00  3.50131437E+00  2.64638419E+00  0.00000000E+00
  0.00000000E+00  3.14159400E+00  0.00000000E+00  3.14159400E+00  3.14159400E+00
  3.14159400E+00  3.14159400E+00  0.00000000E+00  3.14159400E+00  0.00000000E+00
  3.14159400E+00  0.00000000E+00  5.62711845E+00  0.00000000E+00  0.00000000E+00
  3.28122040E+00  8.20305100E-02  3.68090097E+00  0.00000000E+00  0.00000000E+00
  0.00000000E+00  0.00000000E+00  6.71079385E-01 -3.89208590E-02  0.00000000E+00
  3.33317067E+00  5.15976777E+00  6.07541257E+00  3.14159400E+00  3.14159400E+00
  3.14159400E+00
%FLAG SCEE_SCALE_FACTOR                                                         
%FORMAT(5E16.8)                                                                 
  1.20000000E+00  1.20000000E+00  1.20000000E+00  1.20000000E+00  1.20000000E+00
  1.20000000E+00  1.20000000E+00  1.20000000E+00  1.20000000E+00  1.20000000E+00
  1.20000000E+00  1.20000000E+00  1.20000000E+00  1.20000000E+00  1.20000000E+00
  1.20000000E+00  1.20000000E+00  1.20000000E+00  1.20000000E+00  1.20000000E+00
  1.20000000E+00  1.20000000E+00  1.20000000E+00  1.20000000E+00  1.20000000E+00
  1.20000000E+00  1.20000000E+00  1.20000000E+00  1.20000000E+00  1.20000000E+00
  1.20000000E+00  1.20000000E+00  1.20000000E+00  0.00000000E+00  0.00000000E+00
  0.00000000E+00
%FLAG SCNB_SCALE_FACTOR                                                         
%FORMAT(5E16.8)                                                                 
  2.00000000E+00  2.00000000E+00  2.00000000E+00  2.00000000E+00  2.00000000E+00
  2.00000000E+00  2.00000000E+00  2.00000000E+00  2.00000000E+00  2.00000000E+00
  2.00000000E+00  2.00000000E+00  2.00000000E+00  2.00000000E+00  2.00000000E+00
  2.00000000E+00  2.00000000E+00  2.00000000E+00  2.00000000E+00  2.00000000E+00
  2.00000000E+00  2.00000000E+00  2.00000000E+00  2.00000000E+00  2.00000000E+00
  2.00000000E+00  2.00000000E+00  2.00000000E+00  2.00000000E+00  2.00000000E+00
  2.00000000E+00  2.00000000E+00  2.00000000E+00  0.00000000E+00  0.00000000E+00
  0.00000000E+00
%FLAG SOLTY                                                                     
%FORMAT(5E16.8)                                                                 
  0.00000000E+00  0.00000000E+00  0.00000000E+00  0.00000000E+00  0.00000000E+00
  0.00000000E+00  0.00000000E+00  0.00000000E+00  0.00000000E+00  0.00000000E+00
  0.00000000E+00  0.00000000E+00  0.00000000E+00  0.00000000E+00  0.00000000E+00
  0.00000000E+00
%FLAG LENNARD_JONES_ACOEF                                                       
%FORMAT(5E16.8)                                                                 
  0.00000000E+00  0.00000000E+00  5.81803229E+05  0.00000000E+00  7.91544157E+05
  1.04308023E+06  0.00000000E+00  4.66922514E+04  6.78771368E+04  3.25969625E+03
  0.00000000E+00  4.58874091E+05  6.28541240E+05  3.63097246E+04  3.61397723E+05
  0.00000000E+00  3.15360051E+04  4.68930885E+04  2.09814978E+03  2.44050579E+04
  1.32801250E+03  0.00000000E+00  7.44975864E+05  9.95480466E+05  6.20665997E+04
  5.89818288E+05  4.24594555E+04  9.44293233E+05  0.00000000E+00  7.01803794E+05
  9.24822270E+05  6.01816484E+04  5.57281136E+05  4.15766412E+04  8.82619071E+05
  8.19971662E+05  0.00000000E+00  4.96707306E+04  7.18621074E+04  3.50301067E+03
  3.86654993E+04  2.26273716E+03  6.58473870E+04  6.37148278E+04  3.76169105E+03
  0.00000000E+00  6.82786631E+04  9.71708117E+04  4.98586848E+03  5.33379252E+04
  3.25969625E+03  8.96776989E+04  8.61541883E+04  5.34045360E+03  7.51607703E+03
  0.00000000E+00  4.71003287E+05  6.47841731E+05  3.69471530E+04  3.70622491E+05
  2.47595516E+04  6.06829342E+05  5.74393458E+05  3.93690817E+04  5.44261042E+04
  3.79876399E+05  0.00000000E+00  1.40467023E+03  2.56678134E+03  5.94667300E+01
  1.03954408E+03  3.20009193E+01  2.12601181E+03  2.27577561E+03  6.63368273E+01
  1.07193646E+02  1.02595236E+03  1.39982777E-01
%FLAG LENNARD_JONES_BCOEF                                                       
%FORMAT(5E16.8)                                                                 
  0.00000000E+00  0.00000000E+00  6.99746810E+02  0.00000000E+00  6.93079947E+02
  6.75612247E+02  0.00000000E+00  1.03606917E+02  1.06076943E+02  1.43076527E+01
  0.00000000E+00  5.89183300E+02  5.85549272E+02  8.66220817E+01  4.95732238E+02
  0.00000000E+00  8.51470647E+01  8.81685417E+01  1.14788417E+01  7.10161395E+01
  9.13231543E+00  0.00000000E+00  7.50714425E+02  7.36907417E+02  1.13252061E+02
  6.33305958E+02  9.36708259E+01  8.01323529E+02  0.00000000E+00  6.14502845E+02
  5.99015525E+02  9.40505980E+01  5.19163331E+02  7.81725398E+01  6.53361429E+02
  5.31102864E+02  0.00000000E+00  1.05648788E+02  1.07908863E+02  1.46638650E+01
  8.83744760E+01  1.17854122E+01  1.15327881E+02  9.56748258E+01  1.50233639E+01
  0.00000000E+00  1.25287818E+02  1.26919150E+02  1.76949863E+01  1.04986921E+02
  1.43076527E+01  1.36131731E+02  1.12529845E+02  1.81057616E+01  2.17257828E+01
  0.00000000E+00  6.29300710E+02  6.26720080E+02  9.21192136E+01  5.29252520E+02
  7.54103785E+01  6.77220874E+02  5.55666448E+02  9.40124296E+01  1.11805549E+02
  5.64885984E+02  0.00000000E+00  1.79702257E+01  2.06278363E+01  1.93248820E+00
  1.46567808E+01  1.41762397E+00  2.09604198E+01  1.82891803E+01  2.01792524E+00
  2.59456373E+00  1.53505284E+01  9.37598976E-02
%FLAG BONDS_INC_HYDROGEN                                                        
%FORMAT(10I8)                                                                   
      87      90       1      78      81       2      78      84       2      72
      75       3      60      63       7      42      45       2      42      48
       2      42      51       2      33      36      11      24      27      15
      15      18      19       6       9      20       6      12      20       0
       3       1
%FLAG BONDS_WITHOUT_HYDROGEN                                                    
%FORMAT(10I8)                                                                   
      72      78       4      72      87       5      66      69       6      60
      66       8      54      57       6      54      60       8      39      42
       9      39      54      10      33      39      12      30      33      13
      30      66      14      24      30      16      24      78      17      21
      24      18      15      21      18      15      72       4       6      15
      21       3       6      22
%FLAG ANGLES_INC_HYDROGEN                                                       
%FORMAT(10I8)                                                                   
      81      78      84       1      75      72      78       3      75      72
      87       4      72      78      81       5      72      78      84       5
      72      87      90       6      63      60      66       7      54      60
      63       7      48      42      51       1      45      42      48       1
      45      42      51       1      39      42      45      11      39      42
      48      11      39      42      51      11      36      33      39      14
      30      33      36      19      27      24      30      23      27      24
      78      24      24      78      81      28      24      78      84      28
      21      24      27      30      18      15      21      33      18      15
      72      34      15      72      75       3      12       6      15      37
       9       6      12      38       9       6      15      37       6      15
      18      39       3       6       9      42       3       6      12      42
       0       3       6      44
%FLAG ANGLES_WITHOUT_HYDROGEN                                                   
%FORMAT(10I8)                                                                   
      78      72      87       2      60      66      69       8      57      54
      60       8      54      60      66       9      42      39      54      10
      39      54      57      12      39      54      60      13      33      30
      66      15      33      39      42      16      33      39      54      17
      30      24      78      18      30      33      39      20      30      66
      60      21      30      66      69      22      24      30      33      25
      24      30      66      26      24      78      72      27      21      15
      72      29      21      24      30      31      21      24      78      32
      15      21      24      35      15      72      78      36      15      72
      87       2       6      15      21      40       6      15      72      41
       3       6      15      43
%FLAG DIHEDRALS_INC_HYDROGEN                                                    
%FORMAT(10I8)                                                                   
      84      78      72      87       1      81      78      72      87       1
      78      72      87      90       2      78      72     -87      90       3
      78      72     -87      90       4      75      72      78      81       1
      75      72      78      84       1      75      72      87      90       5
      63      60      66      69       7      57      54      60      63       7
      51      42      39      54       8      48      42      39      54       8
      45      42      39      54       8      39      54      60      63       7
      36      33      30      66      10      36      33      39      42      11
      36      33      39      54      11      33      39      42      45      13
      33      39     -42      45      14      33      39      42      48      13
      33      39     -42      48      14      33      39      42      51      13
      33      39     -42      51      14      30      24      78      81       1
      30      24      78      84       1      30      66      60      63       7
      27      24      30      33       6      27      24      30      66       6
      27      24      78      72       1      27      24      78      81       1
      27      24      78      84       1      24      30      33      36      10
      24      78      72      75       1      21      15      72      75       1
      21      24      78      81      24      21      24     -78      81       8
      21      24      78      84      24      21      24     -78      84       8
      18      15      21      24      25      18      15      72      75       1
      18      15      72      78       1      18      15      72      87       1
      15      21      24      27      25      15      72      78      81       1
      15      72      78      84       1      15      72      87      90       2
      15      72     -87      90       3      15      72     -87      90       4
      12       6      15      18       1      12       6      15      21      24
      12       6     -15      21       8      12       6      15      72      30
       9       6      15      18       1       9       6      15      21      24
       9       6     -15      21       8       9       6      15      72      30
       6      15      72      75       1       3       6      15      18      24
       3       6     -15      18       8       0       3       6       9       5
       0       3       6      12       5       0       3       6      15       5
      54      66     -60     -63      35      30      39     -33     -36      36
%FLAG DIHEDRALS_WITHOUT_HYDROGEN                                                
%FORMAT(10I8)                                                                   
      66      30      24      78       6      57      54      60      66       7
      54      60      66      69       7      42      39      54      57       9
      42      39      54      60       9      39      33      30      66      10
      39      54     -60      66       7      33      30      24      78       6
      33      30      66      60      12      33      30      66      69      12
      33      39      54      57       9      33      39     -54      57      15
      33      39     -54      60       9      30      24      78      72       1
      30      33      39      42      11      30      33      39      54      11
      30      66     -60      54       7      24      21     -15      72      16
      24      21     -15      72      17      24      30      33      39      10
      24      30      66      60      12      24      30      66      69      12
      24      78      72      87       1      21      15     -72      78      18
      21      15      72      87      19      21      15     -72      87      20
      21      24      30      33      21      21      24     -30      33      22
      21      24     -30      33      23      21      24      30      66       6
      21      24     -78      72       1      15      21      24      30      26
      15      21     -24      30      27      15      21     -24      78      16
      15      21     -24      78      27      15      72     -78      24      28
      15      72     -78      24      29       6      15      21      24      16
       6      15     -21      24      27       6      15      72      78       1
       6      15      72      87       1       3       6      15      21       1
       3       6      15      72      31       3       6     -15      72      32
       3       6     -15      72      33      30      60     -66     -69      34
      39      60     -54     -57      34      54      33     -39     -42      36
      66      33     -30     -24      35
%FLAG EXCLUDED_ATOMS_LIST                                                       
%FORMAT(10I8)                                                                   
       2       3       4       5       6       3       4       5       6       7
       8      25       4       5       6       7       8       9      25      26
      27      30       5       6       7       8      25       6       7       8
      25       7       8       9      10      11      25      26      27      28
      29      30      31       8       9      25      26      27      30       9
      10      11      12      23      25      26      27      28      29      30
      10      11      12      13      14      21      23      24      25      26
      27      28      29      30      11      12      23      25      27      28
      29      12      13      14      15      19      21      22      23      24
      25      27      28      29      13      14      15      16      17      18
      19      20      21      23      24      27      14      15      19      23
      15      16      17      18      19      20      21      22      23      16
      17      18      19      20      21      17      18      19      18      19
      19      20      21      22      23      24      21      22      23      22
      23      24      23      24      24      27       0      26      27      28
      29      30      31      27      28      29      30      31      28      29
      30      31      29      30      30      31       0
%FLAG HBOND_ACOEF                                                               
%FORMAT(5E16.8)                                                                 

%FLAG HBOND_BCOEF                                                               
%FORMAT(5E16.8)                                                                 

%FLAG HBCUT                                                                     
%FORMAT(5E16.8)                                                                 

%FLAG AMBER_ATOM_TYPE                                                           
%FORMAT(20a4)                                                                   
HO  OH  CI  H1  H1  CT  H1  OS  CT  H2  N*  C2  H4  C2  CT  HC  HC  HC  C   O   
NA  H   C   O   CE  H1  CT  HC  HC  OH  HO  
%FLAG TREE_CHAIN_CLASSIFICATION                                                 
%FORMAT(20a4)                                                                   
M   M   M   E   E   M   E   S   3   E   B   S   E   S   3   E   E   E   B   E   
B   E   B   E   M   E   B   E   E   M   M   
%FLAG JOIN_ARRAY                                                                
%FORMAT(10I8)                                                                   
       0       0       0       0       0       0       0       0       0       0
       0       0       0       0       0       0       0       0       0       0
       0       0       0       0       0       0       0       0       0       0
       0
%FLAG IROTAT                                                                    
%FORMAT(10I8)                                                                   
       0       0       0       0       0       0       0       0       0       0
       0       0       0       0       0       0       0       0       0       0
       0       0       0       0       0       0       0       0       0       0
       0
%FLAG RADIUS_SET                                                                
%FORMAT(1a80)                                                                   
modified Bondi radii (mbondi)                                                   
%FLAG RADII                                                                     
%FORMAT(5E16.8)                                                                 
  8.00000000E-01  1.50000000E+00  1.70000000E+00  1.30000000E+00  1.30000000E+00
  1.70000000E+00  1.30000000E+00  1.50000000E+00  1.70000000E+00  1.30000000E+00
  1.55000000E+00  1.70000000E+00  1.30000000E+00  1.70000000E+00  1.70000000E+00
  1.30000000E+00  1.30000000E+00  1.30000000E+00  1.70000000E+00  1.50000000E+00
  1.55000000E+00  1.30000000E+00  1.70000000E+00  1.50000000E+00  1.70000000E+00
  1.30000000E+00  1.70000000E+00  1.30000000E+00  1.30000000E+00  1.50000000E+00
  8.00000000E-01
%FLAG SCREEN                                                                    
%FORMAT(5E16.8)                                                                 
  8.50000000E-01  8.50000000E-01  7.20000000E-01  8.50000000E-01  8.50000000E-01
  7.20000000E-01  8.50000000E-01  8.50000000E-01  7.20000000E-01  8.50000000E-01
  7.90000000E-01  7.20000000E-01  8.50000000E-01  7.20000000E-01  7.20000000E-01
  8.50000000E-01  8.50000000E-01  8.50000000E-01  7.20000000E-01  8.50000000E-01
  7.90000000E-01  8.50000000E-01  7.20000000E-01  8.50000000E-01  7.20000000E-01
  8.50000000E-01  7.20000000E-01  8.50000000E-01  8.50000000E-01  8.50000000E-01
  8.50000000E-01
%FLAG IPOL                                                                      
%FORMAT(1I8)                                                                    
       0
