%VERSION  VERSION_STAMP = V0001.000  DATE = 07/07/25  14:27:55                  
%FLAG TITLE                                                                     
%FORMAT(20a4)                                                                   
default_name                                                                    
%FLAG POINTERS                                                                  
%FORMAT(10I8)                                                                   
      64      15      23      44      54      64     104     112       0       0
     345       4      44      64     112      37      68      40      26       0
       0       0       0       0       0       0       0       0      32       0
       0
%FLAG ATOM_NAME                                                                 
%FORMAT(20a4)                                                                   
P   OP1 OP2 O5' C5' H5' H5''C4' H4' O4' C1' H1' N1  C6  H6  C5  H5  C4  N4  H41 
H42 N3  C2  O2  C3' H3' C2' H2' H2''O3' P   OP1 OP2 O5' C5' H5' H5''C4' H4' O4' 
C1' H1' N1  C6  H6  C5  C7  H71 H72 H73 C4  O4  N3  H3  C2  O2  C3' H3' C2' H2' 
H2''O3' AG  AG  
%FLAG CHARGE                                                                    
%FORMAT(5E16.8)                                                                 
  2.12453796E+01 -1.41423270E+01 -1.41423270E+01 -9.02732742E+00 -1.25733870E-01
  1.37396142E+00  1.37396142E+00  2.96841267E+00  2.14294248E+00 -6.72585093E+00
  1.14022033E+01 -2.62689032E+00 -3.22636755E+00 -4.75146473E-01  2.27505416E+00
 -6.31222294E+00  3.81538517E+00  1.27694772E+01 -1.61812748E+01  8.44332093E+00
  8.13904496E+00 -1.19069975E+01  1.21044908E+01 -9.20466684E+00  1.29924999E+00
  1.79489655E+00 -1.55618442E+00  1.30836114E+00  1.30836114E+00 -9.53390736E+00
  2.12453796E+01 -1.41423270E+01 -1.41423270E+01 -9.02732742E+00 -1.25733870E-01
  1.37396142E+00  1.37396142E+00  2.96841267E+00  2.14294248E+00 -6.72585093E+00
  1.51947560E+01 -3.02140312E+00 -7.74659129E+00 -1.18346550E+00  2.33436774E+00
 -8.39683584E-02 -3.87008852E+00  1.44951108E+00  1.44951108E+00  1.44951108E+00
  1.14939344E+01 -1.18288238E+01 -1.13839264E+01  4.38649028E+00  1.45534950E+01
 -8.35255565E+00  1.29924999E+00  1.79489655E+00 -1.55618442E+00  1.30836114E+00
  1.30836114E+00 -9.53390736E+00  1.66171523E+01  1.04029653E+01
%FLAG ATOMIC_NUMBER                                                             
%FORMAT(10I8)                                                                   
      15       8       8       8       6       1       1       6       1       8
       6       1       7       6       1       6       1       6       7       1
       1       7       6       8       6       1       6       1       1       8
      15       8       8       8       6       1       1       6       1       8
       6       1       7       6       1       6       6       1       1       1
       6       8       7       1       6       8       6       1       6       1
       1       8      47      47
%FLAG MASS                                                                      
%FORMAT(5E16.8)                                                                 
  3.09700000E+01  1.60000000E+01  1.60000000E+01  1.60000000E+01  1.20100000E+01
  1.00800000E+00  1.00800000E+00  1.20100000E+01  1.00800000E+00  1.60000000E+01
  1.20100000E+01  1.00800000E+00  1.40100000E+01  1.20100000E+01  1.00800000E+00
  1.20100000E+01  1.00800000E+00  1.20100000E+01  1.40100000E+01  1.00800000E+00
  1.00800000E+00  1.40100000E+01  1.20100000E+01  1.60000000E+01  1.20010000E+01
  1.00800000E+00  1.20100000E+01  1.00800000E+00  1.00800000E+00  1.60000000E+01
  3.09700000E+01  1.60000000E+01  1.60000000E+01  1.60000000E+01  1.20100000E+01
  1.00800000E+00  1.00800000E+00  1.20100000E+01  1.00800000E+00  1.60000000E+01
  1.20100000E+01  1.00800000E+00  1.40100000E+01  1.20100000E+01  1.00800000E+00
  1.20100000E+01  1.20100000E+01  1.00800000E+00  1.00800000E+00  1.00800000E+00
  1.20100000E+01  1.60000000E+01  1.40100000E+01  1.00800000E+00  1.20100000E+01
  1.60000000E+01  1.20010000E+01  1.00800000E+00  1.20100000E+01  1.00800000E+00
  1.00800000E+00  1.60000000E+01  1.07870000E+02  1.07870000E+02
%FLAG ATOM_TYPE_INDEX                                                           
%FORMAT(10I8)                                                                   
       1       2       2       3       4       5       5       4       5       3
       4       6       7       8       9       8      10       8       7      11
      11       7       8       2       4       5       4      12      12       3
       1       2       2       3       4       5       5       4       5       3
       4       6       7       8       9       8       4      12      12      12
       8       2       7      13       8      14       4       5       4      12
      12       3      15      15
%FLAG NUMBER_EXCLUDED_ATOMS                                                     
%FORMAT(10I8)                                                                   
       7       3       2       7      10       5       4      11       6      11
      14       7      13       9       4       8       3       8       5       2
       1       6       4       1       5       4       3       2       1       1
       7       3       2       7      10       5       4      11       6      11
      14       7      14      12       4      10       6       3       2       1
       6       4       5       2       3       1       5       4       3       2
       1       1       1       1
%FLAG NONBONDED_PARM_INDEX                                                      
%FORMAT(10I8)                                                                   
       1       2       4       7      11      16      22      29      37      46
      56      67      79      92     106       2       3       5       8      12
      17      23      30      38      47      57      68      80      93     107
       4       5       6       9      13      18      24      31      39      48
      58      69      81      94     108       7       8       9      10      14
      19      25      32      40      49      59      70      82      95     109
      11      12      13      14      15      20      26      33      41      50
      60      71      83      96     110      16      17      18      19      20
      21      27      34      42      51      61      72      84      97     111
      22      23      24      25      26      27      28      35      43      52
      62      73      85      98     112      29      30      31      32      33
      34      35      36      44      53      63      74      86      99     113
      37      38      39      40      41      42      43      44      45      54
      64      75      87     100     114      46      47      48      49      50
      51      52      53      54      55      65      76      88     101     115
      56      57      58      59      60      61      62      63      64      65
      66      77      89     102     116      67      68      69      70      71
      72      73      74      75      76      77      78      90     103     117
      79      80      81      82      83      84      85      86      87      88
      89      90      91     104     118      92      93      94      95      96
      97      98      99     100     101     102     103     104     105     119
     106     107     108     109     110     111     112     113     114     115
     116     117     118     119     120
%FLAG RESIDUE_LABEL                                                             
%FORMAT(20a4)                                                                   
DC1 DM1 AG1 AG2 
%FLAG RESIDUE_POINTER                                                           
%FORMAT(10I8)                                                                   
       1      31      63      64
%FLAG BOND_FORCE_CONSTANT                                                       
%FORMAT(5E16.8)                                                                 
  3.40000000E+02  3.40000000E+02  3.10000000E+02  3.20000000E+02  5.70000000E+02
  4.57000000E+02  6.66000000E+01  4.34000000E+02  4.81000000E+02  4.83000000E+02
  3.67000000E+02  4.27000000E+02  3.67000000E+02  5.49000000E+02  4.48000000E+02
  4.24000000E+02  3.40000000E+02  3.37000000E+02  3.10000000E+02  3.20000000E+02
  3.40000000E+02  3.40000000E+02  3.10000000E+02  3.20000000E+02  5.25000000E+02
  2.30000000E+02  4.50000000E+02  5.53000000E+02  4.57000000E+02  5.17000000E+01
  3.70000000E+01  5.70000000E+02  3.17000000E+02  4.10000000E+02  3.67000000E+02
  5.49000000E+02  4.48000000E+02
%FLAG BOND_EQUIL_VALUE                                                          
%FORMAT(5E16.8)                                                                 
  1.09000000E+00  1.09000000E+00  1.52600000E+00  1.41000000E+00  1.22900000E+00
  1.35800000E+00  2.19360000E+00  1.01000000E+00  1.34000000E+00  1.33900000E+00
  1.08000000E+00  1.43300000E+00  1.08000000E+00  1.35000000E+00  1.36500000E+00
  1.38300000E+00  1.09000000E+00  1.47500000E+00  1.52600000E+00  1.41000000E+00
  1.09000000E+00  1.09000000E+00  1.52600000E+00  1.41000000E+00  1.48000000E+00
  1.61000000E+00  1.36400000E+00  9.60000000E-01  1.35800000E+00  2.22870000E+00
  2.27520000E+00  1.22900000E+00  1.51000000E+00  1.44400000E+00  1.08000000E+00
  1.35000000E+00  1.36500000E+00
%FLAG ANGLE_FORCE_CONSTANT                                                      
%FORMAT(5E16.8)                                                                 
  3.50000000E+01  5.00000000E+01  5.00000000E+01  5.00000000E+01  5.00000000E+01
  8.53700000E+01  8.00000000E+01  5.33900000E+01  3.50000000E+01  7.00000000E+01
  5.00000000E+01  7.00000000E+01  8.39200000E+01  5.00000000E+01  7.00000000E+01
  7.00000000E+01  5.00000000E+01  7.00000000E+01  5.00000000E+01  6.30000000E+01
  5.00000000E+01  5.00000000E+01  7.00000000E+01  7.00000000E+01  8.00000000E+01
  5.00000000E+01  5.00000000E+01  7.00000000E+01  7.00000000E+01  4.00000000E+01
  5.00000000E+01  5.00000000E+01  5.00000000E+01  5.00000000E+01  5.00000000E+01
  5.00000000E+01  5.00000000E+01  6.00000000E+01  4.00000000E+01  5.00000000E+01
  3.50000000E+01  5.00000000E+01  5.00000000E+01  4.00000000E+01  5.00000000E+01
  5.00000000E+01  1.00000000E+02  1.40000000E+02  1.00000000E+02  6.69600000E+01
  5.00000000E+01  8.00000000E+01  8.00000000E+01  1.60700000E+01  7.00000000E+01
  7.00000000E+01  5.00000000E+01  8.00000000E+01  7.00000000E+01  5.00000000E+01
  7.00000000E+01  7.00000000E+01  6.30000000E+01  5.00000000E+01  7.00000000E+01
  7.00000000E+01  8.00000000E+01  7.00000000E+01
%FLAG ANGLE_EQUIL_VALUE                                                         
%FORMAT(5E16.8)                                                                 
  1.91113635E+00  1.91113635E+00  1.91113635E+00  1.91113635E+00  1.91113635E+00
  1.94080696E+00  2.13802925E+00  2.98032551E+00  2.09439600E+00  2.08217869E+00
  2.09439600E+00  2.10312265E+00  2.22058336E+00  2.15199189E+00  2.09614133E+00
  2.12057595E+00  2.08916001E+00  2.12232128E+00  2.08916001E+00  2.04203610E+00
  1.91113635E+00  2.07868803E+00  2.11533996E+00  2.06996138E+00  2.11010397E+00
  1.91113635E+00  1.91113635E+00  2.11533996E+00  2.05250808E+00  1.91113635E+00
  1.91113635E+00  1.91113635E+00  1.91113635E+00  1.91113635E+00  1.91113635E+00
  1.91113635E+00  1.91113635E+00  1.91113635E+00  1.91113635E+00  1.91113635E+00
  1.91113635E+00  1.91113635E+00  1.91113635E+00  1.91113635E+00  1.91113635E+00
  1.91113635E+00  1.88897066E+00  2.09265067E+00  2.10312265E+00  2.09125441E+00
  1.97222290E+00  2.13802925E+00  2.13802925E+00  2.45166505E+00  1.81165254E+00
  2.08916001E+00  1.91113635E+00  2.18689849E+00  2.11533996E+00  2.08916001E+00
  2.12232128E+00  2.08916001E+00  2.10661331E+00  2.07868803E+00  2.11533996E+00
  2.06996138E+00  2.11010397E+00  2.11533996E+00
%FLAG DIHEDRAL_FORCE_CONSTANT                                                   
%FORMAT(5E16.8)                                                                 
  1.55555556E-01  0.00000000E+00  0.00000000E+00  4.00000000E+00  2.55000000E+00
  1.85000000E+00  2.40000000E+00  4.80000000E+00  6.65000000E+00  1.45000000E+00
  1.00000000E-01  3.83300000E-01  1.20000000E+00  1.17500000E+00  1.44000000E-01
  1.03000000E+00  1.52000000E+00  2.60000000E-01  2.50000000E-01  3.83333333E-01
  6.50000000E-01  3.83000000E-01  1.20000000E+00  9.00000000E-01  1.60000000E-01
  1.17804000E+00  9.21020000E-02  9.62830000E-01  2.50000000E-01  2.30000000E+00
  2.17500000E+00  1.15000000E+00  3.80000000E-01  3.00000000E-01  9.90000000E-01
  1.67000000E+00  1.70000000E-01  1.05000000E+01  1.00000000E+00  1.10000000E+00
%FLAG DIHEDRAL_PERIODICITY                                                      
%FORMAT(5E16.8)                                                                 
  3.00000000E+00  3.00000000E+00  2.00000000E+00  2.00000000E+00  2.00000000E+00
  2.00000000E+00  2.00000000E+00  2.00000000E+00  2.00000000E+00  2.00000000E+00
  2.00000000E+00  3.00000000E+00  1.00000000E+00  2.00000000E+00  3.00000000E+00
  1.00000000E+00  2.00000000E+00  3.00000000E+00  1.00000000E+00  3.00000000E+00
  2.00000000E+00  3.00000000E+00  1.00000000E+00  3.00000000E+00  3.00000000E+00
  1.00000000E+00  2.00000000E+00  3.00000000E+00  3.00000000E+00  2.00000000E+00
  2.00000000E+00  1.00000000E+00  3.00000000E+00  3.00000000E+00  1.00000000E+00
  2.00000000E+00  3.00000000E+00  2.00000000E+00  2.00000000E+00  2.00000000E+00
%FLAG DIHEDRAL_PHASE                                                            
%FORMAT(5E16.8)                                                                 
  0.00000000E+00  0.00000000E+00  0.00000000E+00  3.14159400E+00  3.14159400E+00
  3.14159400E+00  3.14159400E+00  3.14159400E+00  3.14159400E+00  3.14159400E+00
  3.14159400E+00  0.00000000E+00  5.62711845E+00  0.00000000E+00  0.00000000E+00
  3.22536984E+00  1.36135740E-01  3.65821168E+00  0.00000000E+00  0.00000000E+00
  0.00000000E+00  0.00000000E+00  6.71079385E-01 -3.89208590E-02  0.00000000E+00
  3.33317067E+00  5.15976777E+00  6.07541257E+00  0.00000000E+00  3.14159400E+00
  3.14159400E+00  0.00000000E+00  3.14159400E+00  0.00000000E+00  3.28122040E+00
  8.20305100E-02  3.68090097E+00  3.14159400E+00  3.14159400E+00  3.14159400E+00
%FLAG SCEE_SCALE_FACTOR                                                         
%FORMAT(5E16.8)                                                                 
  1.20000000E+00  1.20000000E+00  1.20000000E+00  1.20000000E+00  1.20000000E+00
  1.20000000E+00  1.20000000E+00  1.20000000E+00  1.20000000E+00  1.20000000E+00
  1.20000000E+00  1.20000000E+00  1.20000000E+00  1.20000000E+00  1.20000000E+00
  1.20000000E+00  1.20000000E+00  1.20000000E+00  1.20000000E+00  1.20000000E+00
  1.20000000E+00  1.20000000E+00  1.20000000E+00  1.20000000E+00  1.20000000E+00
  1.20000000E+00  1.20000000E+00  1.20000000E+00  1.20000000E+00  1.20000000E+00
  1.20000000E+00  1.20000000E+00  1.20000000E+00  1.20000000E+00  1.20000000E+00
  1.20000000E+00  1.20000000E+00  0.00000000E+00  0.00000000E+00  0.00000000E+00
%FLAG SCNB_SCALE_FACTOR                                                         
%FORMAT(5E16.8)                                                                 
  2.00000000E+00  2.00000000E+00  2.00000000E+00  2.00000000E+00  2.00000000E+00
  2.00000000E+00  2.00000000E+00  2.00000000E+00  2.00000000E+00  2.00000000E+00
  2.00000000E+00  2.00000000E+00  2.00000000E+00  2.00000000E+00  2.00000000E+00
  2.00000000E+00  2.00000000E+00  2.00000000E+00  2.00000000E+00  2.00000000E+00
  2.00000000E+00  2.00000000E+00  2.00000000E+00  2.00000000E+00  2.00000000E+00
  2.00000000E+00  2.00000000E+00  2.00000000E+00  2.00000000E+00  2.00000000E+00
  2.00000000E+00  2.00000000E+00  2.00000000E+00  2.00000000E+00  2.00000000E+00
  2.00000000E+00  2.00000000E+00  0.00000000E+00  0.00000000E+00  0.00000000E+00
%FLAG SOLTY                                                                     
%FORMAT(5E16.8)                                                                 
  0.00000000E+00  0.00000000E+00  0.00000000E+00  0.00000000E+00  0.00000000E+00
  0.00000000E+00  0.00000000E+00  0.00000000E+00  0.00000000E+00  0.00000000E+00
  0.00000000E+00  0.00000000E+00  0.00000000E+00  0.00000000E+00  0.00000000E+00
  0.00000000E+00  0.00000000E+00  0.00000000E+00  0.00000000E+00  0.00000000E+00
  0.00000000E+00  0.00000000E+00  0.00000000E+00  0.00000000E+00  0.00000000E+00
  0.00000000E+00
%FLAG LENNARD_JONES_ACOEF                                                       
%FORMAT(5E16.8)                                                                 
  6.02589390E+06  1.64263766E+06  3.79876399E+05  1.58759528E+06  3.70622491E+05
  3.61397723E+05  2.54188684E+06  6.47841731E+05  6.28541240E+05  1.04308023E+06
  1.81087383E+05  3.69471530E+04  3.63097246E+04  6.78771368E+04  3.25969625E+03
  1.27716552E+05  2.47595516E+04  2.44050579E+04  4.68930885E+04  2.09814978E+03
  1.32801250E+03  2.45746558E+06  6.06829342E+05  5.89818288E+05  9.95480466E+05
  6.20665997E+04  4.24594555E+04  9.44293233E+05  2.25370349E+06  5.74393458E+05
  5.57281136E+05  9.24822270E+05  6.01816484E+04  4.15766412E+04  8.82619071E+05
  8.19971662E+05  1.90880272E+05  3.93690817E+04  3.86654993E+04  7.18621074E+04
  3.50301067E+03  2.26273716E+03  6.58473870E+04  6.37148278E+04  3.76169105E+03
  2.26202022E+05  4.77908183E+04  4.68711055E+04  8.59947003E+04  4.33325458E+03
  2.82099197E+03  7.91627154E+04  7.62451550E+04  4.64559155E+03  5.71629601E+03
  8.41065839E+03  1.02595236E+03  1.03954408E+03  2.56678134E+03  5.94667300E+01
  3.20009193E+01  2.12601181E+03  2.27577561E+03  6.63368273E+01  8.90987508E+01
  1.39982777E-01  2.54238516E+05  5.44261042E+04  5.33379252E+04  9.71708117E+04
  4.98586848E+03  3.25969625E+03  8.96776989E+04  8.61541883E+04  5.34045360E+03
  6.55825601E+03  1.07193646E+02  7.51607703E+03  0.00000000E+00  0.00000000E+00
  0.00000000E+00  0.00000000E+00  0.00000000E+00  0.00000000E+00  0.00000000E+00
  0.00000000E+00  0.00000000E+00  0.00000000E+00  0.00000000E+00  0.00000000E+00
  0.00000000E+00  1.98683736E+06  4.71003287E+05  4.58874091E+05  7.91544157E+05
  4.66922514E+04  3.15360051E+04  7.44975864E+05  7.01803794E+05  4.96707306E+04
  6.00750218E+04  1.40467023E+03  6.82786631E+04  0.00000000E+00  5.81803229E+05
  3.85752530E+05  8.26569658E+04  8.09999684E+04  1.47491675E+05  7.57754794E+03
  4.95559326E+03  1.36142580E+05  1.30769985E+05  8.11593367E+03  9.96523777E+03
  1.63426843E+02  1.14197668E+04  0.00000000E+00  1.03680132E+05  1.73508555E+04
%FLAG LENNARD_JONES_BCOEF                                                       
%FORMAT(5E16.8)                                                                 
  2.19561270E+03  1.16041466E+03  5.64885984E+02  1.08210555E+03  5.29252520E+02
  4.95732238E+02  1.22636552E+03  6.26720080E+02  5.85549272E+02  6.75612247E+02
  2.01468199E+02  9.21192136E+01  8.66220817E+01  1.06076943E+02  1.43076527E+01
  1.69194406E+02  7.54103785E+01  7.10161395E+01  8.81685417E+01  1.14788417E+01
  9.13231543E+00  1.34630496E+03  6.77220874E+02  6.33305958E+02  7.36907417E+02
  1.13252061E+02  9.36708259E+01  8.01323529E+02  1.08732781E+03  5.55666448E+02
  5.19163331E+02  5.99015525E+02  9.40505980E+01  7.81725398E+01  6.53361429E+02
  5.31102864E+02  2.04498832E+02  9.40124296E+01  8.83744760E+01  1.07908863E+02
  1.46638650E+01  1.17854122E+01  1.15327881E+02  9.56748258E+01  1.50233639E+01
  2.22617115E+02  1.03580945E+02  9.73010751E+01  1.18043746E+02  1.63092814E+01
  1.31591746E+01  1.26451907E+02  1.04660679E+02  1.66953734E+01  1.85196588E+01
  4.34187588E+01  1.53505284E+01  1.46567808E+01  2.06278363E+01  1.93248820E+00
  1.41762397E+00  2.09604198E+01  1.82891803E+01  2.01792524E+00  2.33864085E+00
  9.37598976E-02  2.38716853E+02  1.11805549E+02  1.04986921E+02  1.26919150E+02
  1.76949863E+01  1.43076527E+01  1.36131731E+02  1.12529845E+02  1.81057616E+01
  2.00642027E+01  2.59456373E+00  2.17257828E+01  0.00000000E+00  0.00000000E+00
  0.00000000E+00  0.00000000E+00  0.00000000E+00  0.00000000E+00  0.00000000E+00
  0.00000000E+00  0.00000000E+00  0.00000000E+00  0.00000000E+00  0.00000000E+00
  0.00000000E+00  1.27682121E+03  6.29300710E+02  5.89183300E+02  6.93079947E+02
  1.03606917E+02  8.51470647E+01  7.50714425E+02  6.14502845E+02  1.05648788E+02
  1.16187983E+02  1.79702257E+01  1.25287818E+02  0.00000000E+00  6.99746810E+02
  3.60992375E+02  1.69153384E+02  1.58833020E+02  1.91965959E+02  2.67809142E+01
  2.16575277E+01  2.05918496E+02  1.70202051E+02  2.74017436E+01  3.03635667E+01
  3.93298914E+00  3.28768098E+01  0.00000000E+00  1.89537585E+02  4.97511046E+01
%FLAG BONDS_INC_HYDROGEN                                                        
%FORMAT(10I8)                                                                   
      78      81       1      78      84       1      72      75       2      54
      57       8      54      60       8      45      48      11      39      42
      13      30      33      17      21      24      21      12      15      22
      12      18      22     174     177       1     174     180       1     168
     171       2     159     165      28     138     141       1     138     144
       1     138     147       1     129     132      35     120     123      17
     111     114      21     102     105      22     102     108      22
%FLAG BONDS_WITHOUT_HYDROGEN                                                    
%FORMAT(10I8)                                                                   
      72      78       3      72      87       4      66      69       5      63
      66       6      63     189       7      51      54       9      51      63
      10      45      51      12      39      45      14      36      39      15
      36      66      16      30      36      18      30      78      19      27
      30      20      21      27      20      21      72       3      12      21
      23       9      12      24       0       3      25       0       6      25
       0       9      26     168     174       3     168     183       4     162
     165      27     156     162      29     156     189      30     153     186
      31     150     153      32     150     156      29     135     138      33
     135     150      34     129     135      36     126     129      37     126
     162      16     120     126      18     120     174      19     117     120
      20     111     117      20     111     168       3     102     111      23
      99     102      24      90      93      25      90      96      25      90
      99      26
%FLAG ANGLES_INC_HYDROGEN                                                       
%FORMAT(10I8)                                                                   
      81      78      84       1      75      72      78       3      75      72
      87       4      72      78      81       5      72      78      84       5
      57      54      60       9      51      54      57      11      51      54
      60      11      48      45      51      14      42      39      45      17
      39      45      48      19      36      39      42      22      33      30
      36      26      33      30      78      27      30      78      81      31
      30      78      84      31      27      30      33      33      24      21
      27      36      24      21      72      37      21      72      75       3
      18      12      21      40      15      12      18      41      15      12
      21      40      12      21      24      42       9      12      15      45
       9      12      18      45     177     174     180       1     171     168
     174       3     171     168     183       4     168     174     177       5
     168     174     180       5     159     165     162      51     144     138
     147       1     141     138     144       1     141     138     147       1
     135     138     141      57     135     138     144      57     135     138
     147      57     132     129     135      60     126     129     132      64
     123     120     126      26     123     120     174      27     120     174
     177      31     120     174     180      31     117     120     123      33
     114     111     117      36     114     111     168      37     111     168
     171       3     108     102     111      40     105     102     108      41
     105     102     111      40     102     111     114      42      99     102
     105      45      99     102     108      45
%FLAG ANGLES_WITHOUT_HYDROGEN                                                   
%FORMAT(10I8)                                                                   
      78      72      87       2      66      63     189       6      63      66
      69       7      63     189     156       8      54      51      63      10
      51      63      66      12      51      63     189      13      45      51
      54      15      45      51      63      16      39      36      66      18
      39      45      51      20      36      30      78      21      36      39
      45      23      36      66      63      24      36      66      69      25
      30      36      39      28      30      36      66      29      30      78
      72      30      27      21      72      32      27      30      36      34
      27      30      78      35      21      27      30      38      21      72
      78      39      21      72      87       2      12      21      27      43
      12      21      72      44       9      12      21      46       6       0
       9      47       3       0       6      48       3       0       9      47
       0       9      12      49     174     168     183       2     162     156
     189      50     156     162     165      52     153     150     156      53
     150     153     186      54     150     156     162      55     150     156
     189      50     138     135     150      56     135     150     153      58
     135     150     156      59     129     126     162      61     129     135
     138      62     129     135     150      63     126     120     174      21
     126     129     135      65     126     162     156      66     126     162
     165      67     120     126     129      68     120     126     162      29
     120     174     168      30     117     111     168      32     117     120
     126      34     117     120     174      35     111     117     120      38
     111     168     174      39     111     168     183       2     102     111
     117      43     102     111     168      44      99     102     111      46
      96      90      99      47      93      90      96      48      93      90
      99      47      90      99     102      49
%FLAG DIHEDRALS_INC_HYDROGEN                                                    
%FORMAT(10I8)                                                                   
      84      78      72      87       1      81      78      72      87       1
      75      72      78      81       1      75      72      78      84       1
      60      54      51      63       2      57      54      51      63       2
      48      45      51      54       5      48      45      51      63       5
      45      51      54      57       7      45      51      54      60       7
      42      39      36      66       6      42      39      45      48       9
      42      39      45      51       9      36      30      78      81       1
      36      30      78      84       1      36      39      45      48       9
      33      30      36      39       3      33      30      36      66       3
      33      30      78      72       1      33      30      78      81       1
      33      30      78      84       1      30      36      39      42       6
      30      78      72      75       1      27      21      72      75       1
      27      30      78      81      19      27      30     -78      81       2
      27      30      78      84      19      27      30     -78      84       2
      24      21      27      30      20      24      21      72      75       1
      24      21      72      78       1      24      21      72      87       1
      21      27      30      33      20      21      72      78      81       1
      21      72      78      84       1      18      12      21      24       1
      18      12      21      27      19      18      12     -21      27       2
      18      12      21      72      25      15      12      21      24       1
      15      12      21      27      19      15      12     -21      27       2
      15      12      21      72      25      12      21      72      75       1
       9      12      21      24      19       9      12     -21      24       2
       0       9      12      15      20       0       9      12      18      20
     180     174     168     183       1     177     174     168     183       1
     171     168     174     177       1     171     168     174     180       1
     156     162     165     159      30     147     138     135     150       2
     144     138     135     150       2     141     138     135     150       2
     132     129     126     162       6     132     129     135     138       9
     132     129     135     150       9     129     135     138     141      32
     129     135    -138     141      33     129     135     138     144      32
     129     135    -138     144      33     129     135     138     147      32
     129     135    -138     147      33     126     120     174     177       1
     126     120     174     180       1     126     162     165     159      30
     123     120     126     129       3     123     120     126     162       3
     123     120     174     168       1     123     120     174     177       1
     123     120     174     180       1     120     126     129     132       6
     120     174     168     171       1     117     111     168     171       1
     117     120     174     177      19     117     120    -174     177       2
     117     120     174     180      19     117     120    -174     180       2
     114     111     117     120      20     114     111     168     171       1
     114     111     168     174       1     114     111     168     183       1
     111     117     120     123      20     111     168     174     177       1
     111     168     174     180       1     108     102     111     114       1
     108     102     111     117      19     108     102    -111     117       2
     108     102     111     168      25     105     102     111     114       1
     105     102     111     117      19     105     102    -111     117       2
     105     102     111     168      25     102     111     168     171       1
      99     102     111     114      19      99     102    -111     114       2
      90      99     102     105      20      90      99     102     108      20
      51      57     -54     -60      39      39      51     -45     -48      40
      36      45     -39     -42      40     126     135    -129    -132      40
%FLAG DIHEDRALS_WITHOUT_HYDROGEN                                                
%FORMAT(10I8)                                                                   
      69      66      63     189       2      66      36      30      78       3
      66      63     189     156       2      63     189     156     150       2
      63     189     156     162       2      54      51      63      66       2
      54      51      63     189       2      51      63      66      69       4
      51      63     189     156       2      45      39      36      66       6
      45      51     -63      66       8      45      51      63     189       2
      39      36      30      78       3      39      36      66      63      10
      39      36      66      69      10      39      45      51      54       5
      39      45     -51      63       5      36      30      78      72       1
      36      39      45      51       9      36      66     -63      51       4
      36      66      63     189       2      30      27     -21      72      11
      30      27     -21      72      12      30      36      39      45       6
      30      36      66      63      10      30      36      66      69      10
      30      78      72      87       1      27      21     -72      78      13
      27      21      72      87      14      27      21     -72      87      15
      27      30      36      39      16      27      30     -36      39      17
      27      30     -36      39      18      27      30      36      66       3
      27      30     -78      72       1      21      27      30      36      21
      21      27     -30      36      22      21      27     -30      78      11
      21      27     -30      78      22      21      72     -78      30      23
      21      72     -78      30      24      12      21      27      30      11
      12      21     -27      30      22      12      21      72      78       1
      12      21      72      87       1       9      12      21      27       1
       9      12      21      72      26       9      12     -21      72      27
       9      12     -21      72      28       6       0       9      12      29
       3       0       9      12      29       0       9      12      21      20
     165     162     156     189       2     162     126     120     174       3
     156     150     153     186       2     153     150     156     162       2
     153     150     156     189       2     150     156     162     165       4
     138     135     150     153      31     138     135     150     156      31
     135     129     126     162       6     135     150     153     186       2
     135     150    -156     162       4     135     150     156     189       2
     129     126     120     174       3     129     126     162     156      10
     129     126     162     165      10     129     135     150     153      31
     129     135    -150     153      34     129     135    -150     156      31
     126     120     174     168       1     126     129     135     138       9
     126     129     135     150       9     126     162    -156     150       4
     126     162     156     189       2     120     117    -111     168      11
     120     117    -111     168      12     120     126     129     135       6
     120     126     162     156      10     120     126     162     165      10
     120     174     168     183       1     117     111    -168     174      13
     117     111     168     183      14     117     111    -168     183      15
     117     120     126     129      35     117     120    -126     129      36
     117     120    -126     129      37     117     120     126     162       3
     117     120    -174     168       1     111     117     120     126      21
     111     117    -120     126      22     111     117    -120     174      11
     111     117    -120     174      22     111     168    -174     120      23
     111     168    -174     120      24     102     111     117     120      11
     102     111    -117     120      22     102     111     168     174       1
     102     111     168     183       1      99     102     111     117       1
      99     102     111     168      26      99     102    -111     168      27
      99     102    -111     168      28      96      90      99     102      29
      93      90      99     102      29      90      99     102     111      20
      36      63     -66     -69      38      45      54     -51     -63      40
      66      39     -36     -30      39     135     156    -150    -153      38
     150     129    -135    -138      40     162     129    -126    -120      39
%FLAG EXCLUDED_ATOMS_LIST                                                       
%FORMAT(10I8)                                                                   
       2       3       4       5       6       7       8       3       4       5
       4       5       5       6       7       8       9      10      25       6
       7       8       9      10      11      25      26      27      30       7
       8       9      10      25       8       9      10      25       9      10
      11      12      13      25      26      27      28      29      30      10
      11      25      26      27      30      11      12      13      14      23
      25      26      27      28      29      30      12      13      14      15
      16      22      23      24      25      26      27      28      29      30
      13      14      23      25      27      28      29      14      15      16
      17      18      22      23      24      25      27      28      29      64
      15      16      17      18      19      22      23      24      27      16
      17      18      23      17      18      19      20      21      22      23
      64      18      19      22      19      20      21      22      23      24
      53      64      20      21      22      23      64      21      22      22
      23      24      51      53      55      64      24      27      53      64
      64      26      27      28      29      30      27      28      29      30
      28      29      30      29      30      30       0      32      33      34
      35      36      37      38      33      34      35      34      35      35
      36      37      38      39      40      57      36      37      38      39
      40      41      57      58      59      62      37      38      39      40
      57      38      39      40      57      39      40      41      42      43
      57      58      59      60      61      62      40      41      57      58
      59      62      41      42      43      44      55      57      58      59
      60      61      62      42      43      44      45      46      53      55
      56      57      58      59      60      61      62      43      44      55
      57      59      60      61      44      45      46      47      51      53
      54      55      56      57      59      60      61      64      45      46
      47      48      49      50      51      52      53      55      56      59
      46      47      51      55      47      48      49      50      51      52
      53      55      63      64      48      49      50      51      52      53
      49      50      51      50      51      51      52      53      55      56
      63      64      53      55      63      64      54      55      56      63
      64      55      56      56      59      64      64      58      59      60
      61      62      59      60      61      62      60      61      62      61
      62      62       0       0       0
%FLAG HBOND_ACOEF                                                               
%FORMAT(5E16.8)                                                                 

%FLAG HBOND_BCOEF                                                               
%FORMAT(5E16.8)                                                                 

%FLAG HBCUT                                                                     
%FORMAT(5E16.8)                                                                 

%FLAG AMBER_ATOM_TYPE                                                           
%FORMAT(20a4)                                                                   
P   O2  O2  OS  CI  H1  H1  CT  H1  OS  CT  H2  N*  CM  H4  CM  HA  CA  Y2  H   
H   Y3  C   O   CE  H1  CT  HC  HC  OS  P   O2  O2  OS  CI  H1  H1  CT  H1  OS  
CT  H2  N*  C2  H4  C2  CT  HC  HC  HC  C   Y1  Y4  HO  C   OH  CE  H1  CT  HC  
HC  OS  M1  M2  
%FLAG TREE_CHAIN_CLASSIFICATION                                                 
%FORMAT(20a4)                                                                   
M   E   E   M   M   E   E   M   E   S   3   E   B   S   E   S   E   B   B   E   
E   S   B   E   M   E   B   E   E   M   M   E   E   M   M   E   E   M   E   S   
3   E   B   S   E   S   3   E   E   E   B   E   S   E   B   S   M   E   B   E   
E   M   M   M   
%FLAG JOIN_ARRAY                                                                
%FORMAT(10I8)                                                                   
       0       0       0       0       0       0       0       0       0       0
       0       0       0       0       0       0       0       0       0       0
       0       0       0       0       0       0       0       0       0       0
       0       0       0       0       0       0       0       0       0       0
       0       0       0       0       0       0       0       0       0       0
       0       0       0       0       0       0       0       0       0       0
       0       0       0       0
%FLAG IROTAT                                                                    
%FORMAT(10I8)                                                                   
       0       0       0       0       0       0       0       0       0       0
       0       0       0       0       0       0       0       0       0       0
       0       0       0       0       0       0       0       0       0       0
       0       0       0       0       0       0       0       0       0       0
       0       0       0       0       0       0       0       0       0       0
       0       0       0       0       0       0       0       0       0       0
       0       0       0       0
%FLAG RADIUS_SET                                                                
%FORMAT(1a80)                                                                   
modified Bondi radii (mbondi)                                                   
%FLAG RADII                                                                     
%FORMAT(5E16.8)                                                                 
  1.85000000E+00  1.50000000E+00  1.50000000E+00  1.50000000E+00  1.70000000E+00
  1.30000000E+00  1.30000000E+00  1.70000000E+00  1.30000000E+00  1.50000000E+00
  1.70000000E+00  1.30000000E+00  1.55000000E+00  1.70000000E+00  1.30000000E+00
  1.70000000E+00  1.30000000E+00  1.70000000E+00  1.55000000E+00  1.20000000E+00
  1.20000000E+00  1.55000000E+00  1.70000000E+00  1.50000000E+00  1.70000000E+00
  1.30000000E+00  1.70000000E+00  1.30000000E+00  1.30000000E+00  1.50000000E+00
  1.85000000E+00  1.50000000E+00  1.50000000E+00  1.50000000E+00  1.70000000E+00
  1.30000000E+00  1.30000000E+00  1.70000000E+00  1.30000000E+00  1.50000000E+00
  1.70000000E+00  1.30000000E+00  1.55000000E+00  1.70000000E+00  1.30000000E+00
  1.70000000E+00  1.70000000E+00  1.30000000E+00  1.30000000E+00  1.30000000E+00
  1.70000000E+00  1.50000000E+00  1.55000000E+00  8.00000000E-01  1.70000000E+00
  1.50000000E+00  1.70000000E+00  1.30000000E+00  1.70000000E+00  1.30000000E+00
  1.30000000E+00  1.50000000E+00  1.50000000E+00  1.50000000E+00
%FLAG SCREEN                                                                    
%FORMAT(5E16.8)                                                                 
  8.60000000E-01  8.50000000E-01  8.50000000E-01  8.50000000E-01  7.20000000E-01
  8.50000000E-01  8.50000000E-01  7.20000000E-01  8.50000000E-01  8.50000000E-01
  7.20000000E-01  8.50000000E-01  7.90000000E-01  7.20000000E-01  8.50000000E-01
  7.20000000E-01  8.50000000E-01  7.20000000E-01  7.90000000E-01  8.50000000E-01
  8.50000000E-01  7.90000000E-01  7.20000000E-01  8.50000000E-01  7.20000000E-01
  8.50000000E-01  7.20000000E-01  8.50000000E-01  8.50000000E-01  8.50000000E-01
  8.60000000E-01  8.50000000E-01  8.50000000E-01  8.50000000E-01  7.20000000E-01
  8.50000000E-01  8.50000000E-01  7.20000000E-01  8.50000000E-01  8.50000000E-01
  7.20000000E-01  8.50000000E-01  7.90000000E-01  7.20000000E-01  8.50000000E-01
  7.20000000E-01  7.20000000E-01  8.50000000E-01  8.50000000E-01  8.50000000E-01
  7.20000000E-01  8.50000000E-01  7.90000000E-01  8.50000000E-01  7.20000000E-01
  8.50000000E-01  7.20000000E-01  8.50000000E-01  7.20000000E-01  8.50000000E-01
  8.50000000E-01  8.50000000E-01  8.00000000E-01  8.00000000E-01
%FLAG IPOL                                                                      
%FORMAT(1I8)                                                                    
       0
