%VERSION  VERSION_STAMP = V0001.000  DATE = 07/07/25  12:50:11                  
%FLAG TITLE                                                                     
%FORMAT(20a4)                                                                   
default_name                                                                    
%FLAG POINTERS                                                                  
%FORMAT(10I8)                                                                   
      65      15      24      41      55      58     111      98       0       0
     329       4      41      58      98      33      64      44      23       0
       0       0       0       0       0       0       0       0      32       0
       0
%FLAG ATOM_NAME                                                                 
%FORMAT(20a4)                                                                   
P   OP1 OP2 O5' C5' H5' H5''C4' H4' O4' C1' H1' N1  C6  H6  C5  H5  C4  N4  H41 
H42 N3  C2  O2  C3' H3' C2' H2' H2''O3' HO3'P   OP1 OP2 O5' C5' H5' H5''C4' H4' 
O4' C1' H1' N1  C6  H6  C5  C7  H71 H72 H73 C4  O4  N3  H3  C2  O2  C3' H3' C2' 
H2' H2''O3' AG  AG  
%FLAG CHARGE                                                                    
%FORMAT(5E16.8)                                                                 
  2.12453796E+01 -1.41423270E+01 -1.41423270E+01 -9.02732742E+00 -1.25733870E-01
  1.37396142E+00  1.37396142E+00  2.96841267E+00  2.14294248E+00 -6.72585093E+00
 -2.11378680E-01  3.57703749E+00 -6.17735970E-01 -3.33468090E-01  4.17837339E+00
 -9.51568506E+00  3.39481449E+00  1.53777990E+01 -1.78086538E+01  7.86110022E+00
  7.86110022E+00 -1.41186380E+01  1.45031286E+01 -1.19319620E+01  1.29924999E+00
  1.79489655E+00 -1.55618442E+00  1.30836114E+00  1.30836114E+00 -1.19337843E+01
  8.01052308E+00  2.12453796E+01 -1.41423270E+01 -1.41423270E+01 -9.02732742E+00
 -1.25733870E-01  1.37396142E+00  1.37396142E+00  2.96841267E+00  2.14294248E+00
 -6.72585093E+00  1.23911640E+00  3.28730292E+00 -4.35512970E-01 -4.02530607E+00
  4.75055361E+00  4.55557500E-02 -4.13463987E+00  1.40311710E+00  1.40311710E+00
  1.40311710E+00  9.46466262E+00 -1.01370655E+01 -7.90847820E+00  6.23202660E+00
  1.03447997E+01 -1.07165346E+01  1.29924999E+00  1.79489655E+00 -1.55618442E+00
  1.30836114E+00  1.30836114E+00 -9.53390736E+00  1.82223000E+01  1.82223000E+01
%FLAG ATOMIC_NUMBER                                                             
%FORMAT(10I8)                                                                   
      15       8       8       8       6       1       1       6       1       8
       6       1       7       6       1       6       1       6       7       1
       1       7       6       8       6       1       6       1       1       8
       1      15       8       8       8       6       1       1       6       1
       8       6       1       7       6       1       6       6       1       1
       1       6       8       7       1       6       8       6       1       6
       1       1       8      47      47
%FLAG MASS                                                                      
%FORMAT(5E16.8)                                                                 
  3.09700000E+01  1.60000000E+01  1.60000000E+01  1.60000000E+01  1.20100000E+01
  1.00800000E+00  1.00800000E+00  1.20100000E+01  1.00800000E+00  1.60000000E+01
  1.20100000E+01  1.00800000E+00  1.40100000E+01  1.20100000E+01  1.00800000E+00
  1.20100000E+01  1.00800000E+00  1.20100000E+01  1.40100000E+01  1.00800000E+00
  1.00800000E+00  1.40100000E+01  1.20100000E+01  1.60000000E+01  1.20010000E+01
  1.00800000E+00  1.20100000E+01  1.00800000E+00  1.00800000E+00  1.60000000E+01
  1.00800000E+00  3.09700000E+01  1.60000000E+01  1.60000000E+01  1.60000000E+01
  1.20100000E+01  1.00800000E+00  1.00800000E+00  1.20100000E+01  1.00800000E+00
  1.60000000E+01  1.20100000E+01  1.00800000E+00  1.40100000E+01  1.20100000E+01
  1.00800000E+00  1.20100000E+01  1.20100000E+01  1.00800000E+00  1.00800000E+00
  1.00800000E+00  1.20100000E+01  1.60000000E+01  1.40100000E+01  1.00800000E+00
  1.20100000E+01  1.60000000E+01  1.20010000E+01  1.00800000E+00  1.20100000E+01
  1.00800000E+00  1.00800000E+00  1.60000000E+01  1.07870000E+02  1.07870000E+02
%FLAG ATOM_TYPE_INDEX                                                           
%FORMAT(10I8)                                                                   
       1       2       2       3       4       5       5       4       5       3
       4       6       7       8       9       8      10       8       7      11
      11       7       8       2       4       5       4      12      12      13
      14       1       2       2       3       4       5       5       4       5
       3       4       6       7       8       9       8       4      12      12
      12       8       2       7      14       8      13       4       5       4
      12      12       3      15      15
%FLAG NUMBER_EXCLUDED_ATOMS                                                     
%FORMAT(10I8)                                                                   
       7       3       2       7      10       5       4      12       6      11
      14       7      12       9       4       7       3       6       4       2
       1       2       2       1       6       5       4       2       1       1
       1       7       3       2       7      10       5       4      11       6
      11      14       7      13      12       4       8       6       3       2
       1       4       2       3       2       2       1       5       4       3
       2       1       1       1       1
%FLAG NONBONDED_PARM_INDEX                                                      
%FORMAT(10I8)                                                                   
       1       2       4       7      11      16      22      29      37      46
      56      67      79      92     106       2       3       5       8      12
      17      23      30      38      47      57      68      80      93     107
       4       5       6       9      13      18      24      31      39      48
      58      69      81      94     108       7       8       9      10      14
      19      25      32      40      49      59      70      82      95     109
      11      12      13      14      15      20      26      33      41      50
      60      71      83      96     110      16      17      18      19      20
      21      27      34      42      51      61      72      84      97     111
      22      23      24      25      26      27      28      35      43      52
      62      73      85      98     112      29      30      31      32      33
      34      35      36      44      53      63      74      86      99     113
      37      38      39      40      41      42      43      44      45      54
      64      75      87     100     114      46      47      48      49      50
      51      52      53      54      55      65      76      88     101     115
      56      57      58      59      60      61      62      63      64      65
      66      77      89     102     116      67      68      69      70      71
      72      73      74      75      76      77      78      90     103     117
      79      80      81      82      83      84      85      86      87      88
      89      90      91     104     118      92      93      94      95      96
      97      98      99     100     101     102     103     104     105     119
     106     107     108     109     110     111     112     113     114     115
     116     117     118     119     120
%FLAG RESIDUE_LABEL                                                             
%FORMAT(20a4)                                                                   
DC3 DTM AG  AG  
%FLAG RESIDUE_POINTER                                                           
%FORMAT(10I8)                                                                   
       1      32      64      65
%FLAG BOND_FORCE_CONSTANT                                                       
%FORMAT(5E16.8)                                                                 
  5.53000000E+02  3.40000000E+02  3.40000000E+02  3.10000000E+02  3.20000000E+02
  5.70000000E+02  4.57000000E+02  4.34000000E+02  4.81000000E+02  4.83000000E+02
  3.67000000E+02  4.27000000E+02  3.67000000E+02  5.49000000E+02  4.48000000E+02
  4.24000000E+02  3.40000000E+02  3.37000000E+02  3.10000000E+02  3.20000000E+02
  3.40000000E+02  3.40000000E+02  3.10000000E+02  3.20000000E+02  5.25000000E+02
  2.30000000E+02  3.20000000E+02  4.50000000E+02  3.17000000E+02  4.10000000E+02
  3.67000000E+02  5.49000000E+02  4.48000000E+02
%FLAG BOND_EQUIL_VALUE                                                          
%FORMAT(5E16.8)                                                                 
  9.60000000E-01  1.09000000E+00  1.09000000E+00  1.52600000E+00  1.41000000E+00
  1.22900000E+00  1.35800000E+00  1.01000000E+00  1.34000000E+00  1.33900000E+00
  1.08000000E+00  1.43300000E+00  1.08000000E+00  1.35000000E+00  1.36500000E+00
  1.38300000E+00  1.09000000E+00  1.47500000E+00  1.52600000E+00  1.41000000E+00
  1.09000000E+00  1.09000000E+00  1.52600000E+00  1.41000000E+00  1.48000000E+00
  1.61000000E+00  1.41000000E+00  1.36400000E+00  1.51000000E+00  1.44400000E+00
  1.08000000E+00  1.35000000E+00  1.36500000E+00
%FLAG ANGLE_FORCE_CONSTANT                                                      
%FORMAT(5E16.8)                                                                 
  3.50000000E+01  5.00000000E+01  5.00000000E+01  5.00000000E+01  5.00000000E+01
  5.50000000E+01  8.00000000E+01  3.50000000E+01  7.00000000E+01  5.00000000E+01
  7.00000000E+01  5.00000000E+01  7.00000000E+01  7.00000000E+01  5.00000000E+01
  7.00000000E+01  5.00000000E+01  6.30000000E+01  5.00000000E+01  5.00000000E+01
  7.00000000E+01  7.00000000E+01  8.00000000E+01  5.00000000E+01  5.00000000E+01
  7.00000000E+01  7.00000000E+01  4.00000000E+01  5.00000000E+01  5.00000000E+01
  5.00000000E+01  5.00000000E+01  5.00000000E+01  5.00000000E+01  5.00000000E+01
  6.00000000E+01  4.00000000E+01  5.00000000E+01  3.50000000E+01  5.00000000E+01
  5.00000000E+01  4.00000000E+01  5.00000000E+01  5.00000000E+01  1.00000000E+02
  1.40000000E+02  1.00000000E+02  5.00000000E+01  5.00000000E+01  5.00000000E+01
  8.00000000E+01  7.00000000E+01  7.00000000E+01  5.00000000E+01  8.00000000E+01
  7.00000000E+01  5.00000000E+01  7.00000000E+01  7.00000000E+01  6.30000000E+01
  5.00000000E+01  7.00000000E+01  8.00000000E+01  7.00000000E+01
%FLAG ANGLE_EQUIL_VALUE                                                         
%FORMAT(5E16.8)                                                                 
  1.91113635E+00  1.91113635E+00  1.91113635E+00  1.91113635E+00  1.91113635E+00
  1.89368305E+00  2.13802925E+00  2.09439600E+00  2.08217869E+00  2.09439600E+00
  2.10312265E+00  2.15199189E+00  2.09614133E+00  2.12057595E+00  2.08916001E+00
  2.12232128E+00  2.08916001E+00  2.04203610E+00  1.91113635E+00  2.07868803E+00
  2.11533996E+00  2.06996138E+00  2.11010397E+00  1.91113635E+00  1.91113635E+00
  2.11533996E+00  2.05250808E+00  1.91113635E+00  1.91113635E+00  1.91113635E+00
  1.91113635E+00  1.91113635E+00  1.91113635E+00  1.91113635E+00  1.91113635E+00
  1.91113635E+00  1.91113635E+00  1.91113635E+00  1.91113635E+00  1.91113635E+00
  1.91113635E+00  1.91113635E+00  1.91113635E+00  1.91113635E+00  1.88897066E+00
  2.09265067E+00  2.10312265E+00  1.91113635E+00  1.91113635E+00  1.97222290E+00
  2.13802925E+00  1.81165254E+00  2.08916001E+00  1.91113635E+00  2.18689849E+00
  2.11533996E+00  2.08916001E+00  2.12232128E+00  2.08916001E+00  2.10661331E+00
  2.07868803E+00  2.11533996E+00  2.11010397E+00  2.11533996E+00
%FLAG DIHEDRAL_FORCE_CONSTANT                                                   
%FORMAT(5E16.8)                                                                 
  1.55555556E-01  1.07993300E+00  3.19017000E-01  5.48360000E-02  1.66666667E-01
  0.00000000E+00  2.40000000E+00  4.80000000E+00  4.00000000E+00  2.55000000E+00
  1.85000000E+00  6.65000000E+00  1.45000000E+00  1.00000000E-01  3.83300000E-01
  1.20000000E+00  1.17500000E+00  1.44000000E-01  1.03000000E+00  1.52000000E+00
  2.60000000E-01  2.50000000E-01  0.00000000E+00  3.83333333E-01  6.50000000E-01
  3.83000000E-01  1.20000000E+00  9.00000000E-01  1.60000000E-01  1.17804000E+00
  9.21020000E-02  9.62830000E-01  2.50000000E-01  2.30000000E+00  2.17500000E+00
  1.15000000E+00  3.80000000E-01  3.00000000E-01  9.90000000E-01  1.67000000E+00
  1.70000000E-01  1.05000000E+01  1.00000000E+00  1.10000000E+00
%FLAG DIHEDRAL_PERIODICITY                                                      
%FORMAT(5E16.8)                                                                 
  3.00000000E+00  1.00000000E+00  2.00000000E+00  3.00000000E+00  3.00000000E+00
  2.00000000E+00  2.00000000E+00  2.00000000E+00  2.00000000E+00  2.00000000E+00
  2.00000000E+00  2.00000000E+00  2.00000000E+00  2.00000000E+00  3.00000000E+00
  1.00000000E+00  2.00000000E+00  3.00000000E+00  1.00000000E+00  2.00000000E+00
  3.00000000E+00  1.00000000E+00  3.00000000E+00  3.00000000E+00  2.00000000E+00
  3.00000000E+00  1.00000000E+00  3.00000000E+00  3.00000000E+00  1.00000000E+00
  2.00000000E+00  3.00000000E+00  3.00000000E+00  2.00000000E+00  2.00000000E+00
  1.00000000E+00  3.00000000E+00  3.00000000E+00  1.00000000E+00  2.00000000E+00
  3.00000000E+00  2.00000000E+00  2.00000000E+00  2.00000000E+00
%FLAG DIHEDRAL_PHASE                                                            
%FORMAT(5E16.8)                                                                 
  0.00000000E+00  5.19698240E+00  3.50131437E+00  2.64638419E+00  0.00000000E+00
  0.00000000E+00  3.14159400E+00  3.14159400E+00  3.14159400E+00  3.14159400E+00
  3.14159400E+00  3.14159400E+00  3.14159400E+00  3.14159400E+00  0.00000000E+00
  5.62711845E+00  0.00000000E+00  0.00000000E+00  3.22536984E+00  1.36135740E-01
  3.65821168E+00  0.00000000E+00  0.00000000E+00  0.00000000E+00  0.00000000E+00
  0.00000000E+00  6.71079385E-01 -3.89208590E-02  0.00000000E+00  3.33317067E+00
  5.15976777E+00  6.07541257E+00  0.00000000E+00  3.14159400E+00  3.14159400E+00
  0.00000000E+00  3.14159400E+00  0.00000000E+00  3.28122040E+00  8.20305100E-02
  3.68090097E+00  3.14159400E+00  3.14159400E+00  3.14159400E+00
%FLAG SCEE_SCALE_FACTOR                                                         
%FORMAT(5E16.8)                                                                 
  1.20000000E+00  1.20000000E+00  1.20000000E+00  1.20000000E+00  1.20000000E+00
  1.20000000E+00  1.20000000E+00  1.20000000E+00  1.20000000E+00  1.20000000E+00
  1.20000000E+00  1.20000000E+00  1.20000000E+00  1.20000000E+00  1.20000000E+00
  1.20000000E+00  1.20000000E+00  1.20000000E+00  1.20000000E+00  1.20000000E+00
  1.20000000E+00  1.20000000E+00  1.20000000E+00  1.20000000E+00  1.20000000E+00
  1.20000000E+00  1.20000000E+00  1.20000000E+00  1.20000000E+00  1.20000000E+00
  1.20000000E+00  1.20000000E+00  1.20000000E+00  1.20000000E+00  1.20000000E+00
  1.20000000E+00  1.20000000E+00  1.20000000E+00  1.20000000E+00  1.20000000E+00
  1.20000000E+00  0.00000000E+00  0.00000000E+00  0.00000000E+00
%FLAG SCNB_SCALE_FACTOR                                                         
%FORMAT(5E16.8)                                                                 
  2.00000000E+00  2.00000000E+00  2.00000000E+00  2.00000000E+00  2.00000000E+00
  2.00000000E+00  2.00000000E+00  2.00000000E+00  2.00000000E+00  2.00000000E+00
  2.00000000E+00  2.00000000E+00  2.00000000E+00  2.00000000E+00  2.00000000E+00
  2.00000000E+00  2.00000000E+00  2.00000000E+00  2.00000000E+00  2.00000000E+00
  2.00000000E+00  2.00000000E+00  2.00000000E+00  2.00000000E+00  2.00000000E+00
  2.00000000E+00  2.00000000E+00  2.00000000E+00  2.00000000E+00  2.00000000E+00
  2.00000000E+00  2.00000000E+00  2.00000000E+00  2.00000000E+00  2.00000000E+00
  2.00000000E+00  2.00000000E+00  2.00000000E+00  2.00000000E+00  2.00000000E+00
  2.00000000E+00  0.00000000E+00  0.00000000E+00  0.00000000E+00
%FLAG SOLTY                                                                     
%FORMAT(5E16.8)                                                                 
  0.00000000E+00  0.00000000E+00  0.00000000E+00  0.00000000E+00  0.00000000E+00
  0.00000000E+00  0.00000000E+00  0.00000000E+00  0.00000000E+00  0.00000000E+00
  0.00000000E+00  0.00000000E+00  0.00000000E+00  0.00000000E+00  0.00000000E+00
  0.00000000E+00  0.00000000E+00  0.00000000E+00  0.00000000E+00  0.00000000E+00
  0.00000000E+00  0.00000000E+00  0.00000000E+00
%FLAG LENNARD_JONES_ACOEF                                                       
%FORMAT(5E16.8)                                                                 
  6.02589390E+06  1.64263766E+06  3.79876399E+05  1.58759528E+06  3.70622491E+05
  3.61397723E+05  2.54188684E+06  6.47841731E+05  6.28541240E+05  1.04308023E+06
  1.81087383E+05  3.69471530E+04  3.63097246E+04  6.78771368E+04  3.25969625E+03
  1.27716552E+05  2.47595516E+04  2.44050579E+04  4.68930885E+04  2.09814978E+03
  1.32801250E+03  2.45746558E+06  6.06829342E+05  5.89818288E+05  9.95480466E+05
  6.20665997E+04  4.24594555E+04  9.44293233E+05  2.25370349E+06  5.74393458E+05
  5.57281136E+05  9.24822270E+05  6.01816484E+04  4.15766412E+04  8.82619071E+05
  8.19971662E+05  1.90880272E+05  3.93690817E+04  3.86654993E+04  7.18621074E+04
  3.50301067E+03  2.26273716E+03  6.58473870E+04  6.37148278E+04  3.76169105E+03
  2.26202022E+05  4.77908183E+04  4.68711055E+04  8.59947003E+04  4.33325458E+03
  2.82099197E+03  7.91627154E+04  7.62451550E+04  4.64559155E+03  5.71629601E+03
  8.41065839E+03  1.02595236E+03  1.03954408E+03  2.56678134E+03  5.94667300E+01
  3.20009193E+01  2.12601181E+03  2.27577561E+03  6.63368273E+01  8.90987508E+01
  1.39982777E-01  2.54238516E+05  5.44261042E+04  5.33379252E+04  9.71708117E+04
  4.98586848E+03  3.25969625E+03  8.96776989E+04  8.61541883E+04  5.34045360E+03
  6.55825601E+03  1.07193646E+02  7.51607703E+03  1.98683736E+06  4.71003287E+05
  4.58874091E+05  7.91544157E+05  4.66922514E+04  3.15360051E+04  7.44975864E+05
  7.01803794E+05  4.96707306E+04  6.00750218E+04  1.40467023E+03  6.82786631E+04
  5.81803229E+05  0.00000000E+00  0.00000000E+00  0.00000000E+00  0.00000000E+00
  0.00000000E+00  0.00000000E+00  0.00000000E+00  0.00000000E+00  0.00000000E+00
  0.00000000E+00  0.00000000E+00  0.00000000E+00  0.00000000E+00  0.00000000E+00
  8.76445280E+04  1.72504820E+04  1.69884518E+04  3.23775903E+04  1.47944164E+03
  9.41098991E+02  2.94019207E+04  2.87068201E+04  1.59381964E+03  1.98242581E+03
  2.38062696E+01  2.28782322E+03  2.19207715E+04  0.00000000E+00  6.65919217E+02
%FLAG LENNARD_JONES_BCOEF                                                       
%FORMAT(5E16.8)                                                                 
  2.19561270E+03  1.16041466E+03  5.64885984E+02  1.08210555E+03  5.29252520E+02
  4.95732238E+02  1.22636552E+03  6.26720080E+02  5.85549272E+02  6.75612247E+02
  2.01468199E+02  9.21192136E+01  8.66220817E+01  1.06076943E+02  1.43076527E+01
  1.69194406E+02  7.54103785E+01  7.10161395E+01  8.81685417E+01  1.14788417E+01
  9.13231543E+00  1.34630496E+03  6.77220874E+02  6.33305958E+02  7.36907417E+02
  1.13252061E+02  9.36708259E+01  8.01323529E+02  1.08732781E+03  5.55666448E+02
  5.19163331E+02  5.99015525E+02  9.40505980E+01  7.81725398E+01  6.53361429E+02
  5.31102864E+02  2.04498832E+02  9.40124296E+01  8.83744760E+01  1.07908863E+02
  1.46638650E+01  1.17854122E+01  1.15327881E+02  9.56748258E+01  1.50233639E+01
  2.22617115E+02  1.03580945E+02  9.73010751E+01  1.18043746E+02  1.63092814E+01
  1.31591746E+01  1.26451907E+02  1.04660679E+02  1.66953734E+01  1.85196588E+01
  4.34187588E+01  1.53505284E+01  1.46567808E+01  2.06278363E+01  1.93248820E+00
  1.41762397E+00  2.09604198E+01  1.82891803E+01  2.01792524E+00  2.33864085E+00
  9.37598976E-02  2.38716853E+02  1.11805549E+02  1.04986921E+02  1.26919150E+02
  1.76949863E+01  1.43076527E+01  1.36131731E+02  1.12529845E+02  1.81057616E+01
  2.00642027E+01  2.59456373E+00  2.17257828E+01  1.27682121E+03  6.29300710E+02
  5.89183300E+02  6.93079947E+02  1.03606917E+02  8.51470647E+01  7.50714425E+02
  6.14502845E+02  1.05648788E+02  1.16187983E+02  1.79702257E+01  1.25287818E+02
  6.99746810E+02  0.00000000E+00  0.00000000E+00  0.00000000E+00  0.00000000E+00
  0.00000000E+00  0.00000000E+00  0.00000000E+00  0.00000000E+00  0.00000000E+00
  0.00000000E+00  0.00000000E+00  0.00000000E+00  0.00000000E+00  0.00000000E+00
  1.10318318E+02  4.95430990E+01  4.66355238E+01  5.76639409E+01  7.58667640E+00
  6.05090445E+00  6.13518706E+01  5.11263612E+01  7.78520637E+00  8.68258441E+00
  9.62383824E-01  9.43439103E+00  5.58749412E+01  0.00000000E+00  4.00623328E+00
%FLAG BONDS_INC_HYDROGEN                                                        
%FORMAT(10I8)                                                                   
      87      90       1      78      81       2      78      84       2      72
      75       3      54      57       8      54      60       8      45      48
      11      39      42      13      30      33      17      21      24      21
      12      15      22      12      18      22     177     180       2     177
     183       2     171     174       3     162     168       1     141     144
       2     141     147       2     141     150       2     132     135      31
     123     126      17     114     117      21     105     108      22     105
     111      22
%FLAG BONDS_WITHOUT_HYDROGEN                                                    
%FORMAT(10I8)                                                                   
      72      78       4      72      87       5      66      69       6      63
      66       7      51      54       9      51      63      10      45      51
      12      39      45      14      36      39      15      36      66      16
      30      36      18      30      78      19      27      30      20      21
      27      20      21      72       4      12      21      23       9      12
      24       0       3      25       0       6      25       0       9      26
     171     177       4     171     186      27     165     168      28     159
     165       7     153     156       6     153     159       7     138     141
      29     138     153      30     132     138      32     129     132      33
     129     165      16     123     129      18     123     177      19     120
     123      20     114     120      20     114     171       4     105     114
      23     102     105      24      93      96      25      93      99      25
      93     102      26
%FLAG ANGLES_INC_HYDROGEN                                                       
%FORMAT(10I8)                                                                   
      81      78      84       1      75      72      78       3      75      72
      87       4      72      78      81       5      72      78      84       5
      72      87      90       6      57      54      60       8      51      54
      57      10      51      54      60      10      48      45      51      12
      42      39      45      15      39      45      48      17      36      39
      42      20      33      30      36      24      33      30      78      25
      30      78      81      29      30      78      84      29      27      30
      33      31      24      21      27      34      24      21      72      35
      21      72      75       3      18      12      21      38      15      12
      18      39      15      12      21      38      12      21      24      40
       9      12      15      43       9      12      18      43     180     177
     183       1     174     171     177       3     174     171     186      49
     171     177     180       5     171     177     183       5     162     168
     165      50     147     141     150       1     144     141     147       1
     144     141     150       1     138     141     144      54     138     141
     147      54     138     141     150      54     135     132     138      57
     129     132     135      61     126     123     129      24     126     123
     177      25     123     177     180      29     123     177     183      29
     120     123     126      31     117     114     120      34     117     114
     171      35     114     171     174       3     111     105     114      38
     108     105     111      39     108     105     114      38     105     114
     117      40     102     105     108      43     102     105     111      43
%FLAG ANGLES_WITHOUT_HYDROGEN                                                   
%FORMAT(10I8)                                                                   
      78      72      87       2      63      66      69       7      54      51
      63       9      51      63      66      11      45      51      54      13
      45      51      63      14      39      36      66      16      39      45
      51      18      36      30      78      19      36      39      45      21
      36      66      63      22      36      66      69      23      30      36
      39      26      30      36      66      27      30      78      72      28
      27      21      72      30      27      30      36      32      27      30
      78      33      21      27      30      36      21      72      78      37
      21      72      87       2      12      21      27      41      12      21
      72      42       9      12      21      44       6       0       9      45
       3       0       6      46       3       0       9      45       0       9
      12      47     177     171     186      48     159     165     168      51
     156     153     159       7     153     159     165      52     141     138
     153      53     138     153     156      55     138     153     159      56
     132     129     165      58     132     138     141      59     132     138
     153      60     129     123     177      19     129     132     138      62
     129     165     159      22     129     165     168      63     123     129
     132      64     123     129     165      27     123     177     171      28
     120     114     171      30     120     123     129      32     120     123
     177      33     114     120     123      36     114     171     177      37
     114     171     186      48     105     114     120      41     105     114
     171      42     102     105     114      44      99      93     102      45
      96      93      99      46      96      93     102      45      93     102
     105      47
%FLAG DIHEDRALS_INC_HYDROGEN                                                    
%FORMAT(10I8)                                                                   
      84      78      72      87       1      81      78      72      87       1
      78      72      87      90       2      78      72     -87      90       3
      78      72     -87      90       4      75      72      78      81       1
      75      72      78      84       1      75      72      87      90       5
      60      54      51      63       7      57      54      51      63       7
      48      45      51      54      10      48      45      51      63      10
      45      51      54      57       7      45      51      54      60       7
      42      39      36      66      11      42      39      45      48      12
      42      39      45      51      12      36      30      78      81       1
      36      30      78      84       1      36      39      45      48      12
      33      30      36      39       6      33      30      36      66       6
      33      30      78      72       1      33      30      78      81       1
      33      30      78      84       1      30      36      39      42      11
      30      78      72      75       1      27      21      72      75       1
      27      30      78      81      22      27      30     -78      81      23
      27      30      78      84      22      27      30     -78      84      23
      24      21      27      30      24      24      21      72      75       1
      24      21      72      78       1      24      21      72      87       1
      21      27      30      33      24      21      72      78      81       1
      21      72      78      84       1      21      72      87      90       2
      21      72     -87      90       3      21      72     -87      90       4
      18      12      21      24       1      18      12      21      27      22
      18      12     -21      27      23      18      12      21      72      29
      15      12      21      24       1      15      12      21      27      22
      15      12     -21      27      23      15      12      21      72      29
      12      21      72      75       1       9      12      21      24      22
       9      12     -21      24      23       0       9      12      15      24
       0       9      12      18      24     183     177     171     186       1
     180     177     171     186       1     174     171     177     180       1
     174     171     177     183       1     159     165     168     162      34
     150     141     138     153      23     147     141     138     153      23
     144     141     138     153      23     135     132     129     165      11
     135     132     138     141      12     135     132     138     153      12
     132     138     141     144      36     132     138    -141     144      37
     132     138     141     147      36     132     138    -141     147      37
     132     138     141     150      36     132     138    -141     150      37
     129     123     177     180       1     129     123     177     183       1
     129     165     168     162      34     126     123     129     132       6
     126     123     129     165       6     126     123     177     171       1
     126     123     177     180       1     126     123     177     183       1
     123     129     132     135      11     123     177     171     174       1
     120     114     171     174       1     120     123     177     180      22
     120     123    -177     180      23     120     123     177     183      22
     120     123    -177     183      23     117     114     120     123      24
     117     114     171     174       1     117     114     171     177       1
     117     114     171     186       1     114     120     123     126      24
     114     171     177     180       1     114     171     177     183       1
     111     105     114     117       1     111     105     114     120      22
     111     105    -114     120      23     111     105     114     171      29
     108     105     114     117       1     108     105     114     120      22
     108     105    -114     120      23     108     105     114     171      29
     105     114     171     174       1     102     105     114     117      22
     102     105    -114     117      23      93     102     105     108      24
      93     102     105     111      24      51      57     -54     -60      43
      39      51     -45     -48      44      36      45     -39     -42      44
     129     138    -132    -135      44
%FLAG DIHEDRALS_WITHOUT_HYDROGEN                                                
%FORMAT(10I8)                                                                   
      66      36      30      78       6      54      51      63      66       8
      51      63      66      69       9      45      39      36      66      11
      45      51     -63      66       8      39      36      30      78       6
      39      36      66      63      13      39      36      66      69      13
      39      45      51      54      10      39      45     -51      63      10
      36      30      78      72       1      36      39      45      51      12
      36      66     -63      51       9      30      27     -21      72      14
      30      27     -21      72      15      30      36      39      45      11
      30      36      66      63      13      30      36      66      69      13
      30      78      72      87       1      27      21     -72      78      16
      27      21      72      87      17      27      21     -72      87      18
      27      30      36      39      19      27      30     -36      39      20
      27      30     -36      39      21      27      30      36      66       6
      27      30     -78      72       1      21      27      30      36      25
      21      27     -30      36      26      21      27     -30      78      14
      21      27     -30      78      26      21      72     -78      30      27
      21      72     -78      30      28      12      21      27      30      14
      12      21     -27      30      26      12      21      72      78       1
      12      21      72      87       1       9      12      21      27       1
       9      12      21      72      30       9      12     -21      72      31
       9      12     -21      72      32       6       0       9      12      33
       3       0       9      12      33       0       9      12      21      24
     165     129     123     177       6     156     153     159     165       9
     153     159     165     168       9     141     138     153     156      35
     141     138     153     159      35     138     132     129     165      11
     138     153    -159     165       9     132     129     123     177       6
     132     129     165     159      13     132     129     165     168      13
     132     138     153     156      35     132     138    -153     156      38
     132     138    -153     159      35     129     123     177     171       1
     129     132     138     141      12     129     132     138     153      12
     129     165    -159     153       9     123     120    -114     171      14
     123     120    -114     171      15     123     129     132     138      11
     123     129     165     159      13     123     129     165     168      13
     123     177     171     186       1     120     114    -171     177      16
     120     114     171     186      17     120     114    -171     186      18
     120     123     129     132      39     120     123    -129     132      40
     120     123    -129     132      41     120     123     129     165       6
     120     123    -177     171       1     114     120     123     129      25
     114     120    -123     129      26     114     120    -123     177      14
     114     120    -123     177      26     114     171    -177     123      27
     114     171    -177     123      28     105     114     120     123      14
     105     114    -120     123      26     105     114     171     177       1
     105     114     171     186       1     102     105     114     120       1
     102     105     114     171      30     102     105    -114     171      31
     102     105    -114     171      32      99      93     102     105      33
      96      93     102     105      33      93     102     105     114      24
      36      63     -66     -69      42      45      54     -51     -63      44
      66      39     -36     -30      43     138     159    -153    -156      42
     153     132    -138    -141      44     165     132    -129    -123      43
%FLAG EXCLUDED_ATOMS_LIST                                                       
%FORMAT(10I8)                                                                   
       2       3       4       5       6       7       8       3       4       5
       4       5       5       6       7       8       9      10      25       6
       7       8       9      10      11      25      26      27      30       7
       8       9      10      25       8       9      10      25       9      10
      11      12      13      25      26      27      28      29      30      31
      10      11      25      26      27      30      11      12      13      14
      23      25      26      27      28      29      30      12      13      14
      15      16      22      23      24      25      26      27      28      29
      30      13      14      23      25      27      28      29      14      15
      16      17      18      22      23      24      25      27      28      29
      15      16      17      18      19      22      23      24      27      16
      17      18      23      17      18      19      20      21      22      23
      18      19      22      19      20      21      22      23      24      20
      21      22      23      21      22      22      23      24      24      27
       0      26      27      28      29      30      31      27      28      29
      30      31      28      29      30      31      29      30      30      31
       0      33      34      35      36      37      38      39      34      35
      36      35      36      36      37      38      39      40      41      58
      37      38      39      40      41      42      58      59      60      63
      38      39      40      41      58      39      40      41      58      40
      41      42      43      44      58      59      60      61      62      63
      41      42      58      59      60      63      42      43      44      45
      56      58      59      60      61      62      63      43      44      45
      46      47      54      56      57      58      59      60      61      62
      63      44      45      56      58      60      61      62      45      46
      47      48      52      54      55      56      57      58      60      61
      62      46      47      48      49      50      51      52      53      54
      56      57      60      47      48      52      56      48      49      50
      51      52      53      54      56      49      50      51      52      53
      54      50      51      52      51      52      52      53      54      56
      57      54      56      55      56      57      56      57      57      60
       0      59      60      61      62      63      60      61      62      63
      61      62      63      62      63      63       0       0       0
%FLAG HBOND_ACOEF                                                               
%FORMAT(5E16.8)                                                                 

%FLAG HBOND_BCOEF                                                               
%FORMAT(5E16.8)                                                                 

%FLAG HBCUT                                                                     
%FORMAT(5E16.8)                                                                 

%FLAG AMBER_ATOM_TYPE                                                           
%FORMAT(20a4)                                                                   
P   O2  O2  OS  CI  H1  H1  CT  H1  OS  CT  H2  N*  CM  H4  CM  HA  CA  N2  H   
H   NC  C   O   CE  H1  CT  HC  HC  OH  HO  P   O2  O2  OS  CI  H1  H1  CT  H1  
OS  CT  H2  N*  C2  H4  C2  CT  HC  HC  HC  C   O   NC  HO  C   OH  CE  H1  CT  
HC  HC  OS  Ag+ Ag+ 
%FLAG TREE_CHAIN_CLASSIFICATION                                                 
%FORMAT(20a4)                                                                   
M   E   E   M   M   E   E   M   E   S   3   E   B   S   E   S   E   B   B   E   
E   S   B   E   M   E   B   E   E   M   M   M   E   E   M   M   E   E   M   E   
S   3   E   B   S   E   S   3   E   E   E   B   E   S   E   B   S   M   E   B   
E   E   M   M   M   
%FLAG JOIN_ARRAY                                                                
%FORMAT(10I8)                                                                   
       0       0       0       0       0       0       0       0       0       0
       0       0       0       0       0       0       0       0       0       0
       0       0       0       0       0       0       0       0       0       0
       0       0       0       0       0       0       0       0       0       0
       0       0       0       0       0       0       0       0       0       0
       0       0       0       0       0       0       0       0       0       0
       0       0       0       0       0
%FLAG IROTAT                                                                    
%FORMAT(10I8)                                                                   
       0       0       0       0       0       0       0       0       0       0
       0       0       0       0       0       0       0       0       0       0
       0       0       0       0       0       0       0       0       0       0
       0       0       0       0       0       0       0       0       0       0
       0       0       0       0       0       0       0       0       0       0
       0       0       0       0       0       0       0       0       0       0
       0       0       0       0       0
%FLAG RADIUS_SET                                                                
%FORMAT(1a80)                                                                   
modified Bondi radii (mbondi)                                                   
%FLAG RADII                                                                     
%FORMAT(5E16.8)                                                                 
  1.85000000E+00  1.50000000E+00  1.50000000E+00  1.50000000E+00  1.70000000E+00
  1.30000000E+00  1.30000000E+00  1.70000000E+00  1.30000000E+00  1.50000000E+00
  1.70000000E+00  1.30000000E+00  1.55000000E+00  1.70000000E+00  1.30000000E+00
  1.70000000E+00  1.30000000E+00  1.70000000E+00  1.55000000E+00  1.30000000E+00
  1.30000000E+00  1.55000000E+00  1.70000000E+00  1.50000000E+00  1.70000000E+00
  1.30000000E+00  1.70000000E+00  1.30000000E+00  1.30000000E+00  1.50000000E+00
  8.00000000E-01  1.85000000E+00  1.50000000E+00  1.50000000E+00  1.50000000E+00
  1.70000000E+00  1.30000000E+00  1.30000000E+00  1.70000000E+00  1.30000000E+00
  1.50000000E+00  1.70000000E+00  1.30000000E+00  1.55000000E+00  1.70000000E+00
  1.30000000E+00  1.70000000E+00  1.70000000E+00  1.30000000E+00  1.30000000E+00
  1.30000000E+00  1.70000000E+00  1.50000000E+00  1.55000000E+00  8.00000000E-01
  1.70000000E+00  1.50000000E+00  1.70000000E+00  1.30000000E+00  1.70000000E+00
  1.30000000E+00  1.30000000E+00  1.50000000E+00  1.50000000E+00  1.50000000E+00
%FLAG SCREEN                                                                    
%FORMAT(5E16.8)                                                                 
  8.60000000E-01  8.50000000E-01  8.50000000E-01  8.50000000E-01  7.20000000E-01
  8.50000000E-01  8.50000000E-01  7.20000000E-01  8.50000000E-01  8.50000000E-01
  7.20000000E-01  8.50000000E-01  7.90000000E-01  7.20000000E-01  8.50000000E-01
  7.20000000E-01  8.50000000E-01  7.20000000E-01  7.90000000E-01  8.50000000E-01
  8.50000000E-01  7.90000000E-01  7.20000000E-01  8.50000000E-01  7.20000000E-01
  8.50000000E-01  7.20000000E-01  8.50000000E-01  8.50000000E-01  8.50000000E-01
  8.50000000E-01  8.60000000E-01  8.50000000E-01  8.50000000E-01  8.50000000E-01
  7.20000000E-01  8.50000000E-01  8.50000000E-01  7.20000000E-01  8.50000000E-01
  8.50000000E-01  7.20000000E-01  8.50000000E-01  7.90000000E-01  7.20000000E-01
  8.50000000E-01  7.20000000E-01  7.20000000E-01  8.50000000E-01  8.50000000E-01
  8.50000000E-01  7.20000000E-01  8.50000000E-01  7.90000000E-01  8.50000000E-01
  7.20000000E-01  8.50000000E-01  7.20000000E-01  8.50000000E-01  7.20000000E-01
  8.50000000E-01  8.50000000E-01  8.50000000E-01  8.00000000E-01  8.00000000E-01
%FLAG IPOL                                                                      
%FORMAT(1I8)                                                                    
       0
